# OOMMF OVF 2.0
#
# Segment count: 1
#
# Begin: Segment
# Begin: Header
#
# Title: Oxs_TimeDriver::Magnetization
# Desc: Oxs vector field output
# Desc:  MIF source file: /mnt/gpfs/work/plgrid/groups/plggspinsym/MF/switching-obrazki/p-ap/Anisotropy.mif
# Desc:  Iteration: 9500, State id: 66615
# Desc:  Stage: 0, Stage iteration: 9500
# Desc:  Stage simulation time: 1.39831e-09 s
# Desc:  Total simulation time: 1.39831e-09 s
# meshunit: m
# meshtype: rectangular
# xbase: 1.0000000000000001e-09
# ybase: 1.0000000000000001e-09
# zbase: 3.4999999999999998e-10
# xnodes: 35
# ynodes: 35
# znodes: 5
# xstepsize: 2.0000000000000001e-09
# ystepsize: 2.0000000000000001e-09
# zstepsize: 6.9999999999999996e-10
# xmin: 0
# ymin: 0
# zmin: 0
# xmax: 7.0000000000000005e-08
# ymax: 7.0000000000000005e-08
# zmax: 3.4999999999999999e-09
# valuedim: 3
# valuelabels: Magnetization_x Magnetization_y Magnetization_z
# valueunits: A/m A/m A/m
#
# End: Header
#
# Begin: Data Text
 -0 0 -0
 0 0 -0
 -0 -0 0
 -0 0 0
 0 0 0
 -0 0 -0
 0 0 0
 0 -0 0
 -0 0 0
 0 0 0
 0 0 0
 -0 -0 0
 0 0 0
 27091.426012829397 11694.736635757879 -999564.54907705286
 25717.003566736657 10869.021745225731 -999610.17406479525
 24188.049542492659 10312.531170984197 -999654.23520344123
 23033.908517804666 10241.04716787359 -999682.22951660922
 22170.619910450656 10615.047135623228 -999697.84654519241
 21381.861008613439 11367.602748499103 -999706.75381711847
 20391.277157898101 12451.741017155113 -999714.53423540446
 18860.579610760458 13803.224947902203 -999726.83745000244
 16714.49306224212 15117.895587421706 -999746.00522066606
 0 0 0
 -0 0 -0
 -0 0 -0
 -0 0 0
 0 -0 0
 -0 0 0
 -0 -0 0
 0 0 0
 0 -0 0
 0 -0 -0
 0 -0 0
 -0 -0 0
 0 0 -0
 -0 -0 -0
 -0 -0 -0
 -0 -0 -0
 -0 0 -0
 0 0 -0
 0 0 -0
 -0 -0 0
 0 0 0
 0 0 -0
 0 0 0
 28384.075289413569 7821.7467161174818 -999566.4883079431
 26937.906193772487 6456.4492930153156 -999616.25810729084
 25975.71459467867 5270.6515027516316 -999648.67952897947
 25893.455816901682 5493.0338950936766 -999649.61637790129
 25103.151555246255 4560.223924362972 -999674.46508338617
 24127.770989952136 3911.7734402118153 -999701.22971596313
 23319.88816138832 3763.9613627454532 -999720.96877628821
 22681.503698585053 4053.3330319056927 -999734.52470208472
 22081.566511984402 4701.8986140655834 -999745.11580192251
 21326.893013153105 5662.7837601033307 -999756.51861565362
 20183.488950310781 6909.1561092939428 -999772.41927133093
 18541.426948952925 8328.4158362113922 -999793.40514746134
 17174.043082025502 8986.2885592152725 -999812.13178384048
 15475.592869040698 11573.286151004299 -999813.26510154817
 13226.806958892603 13894.32086112499 -999815.9827815718
 -0 0 -0
 0 -0 0
 -0 0 -0
 0 -0 -0
 -0 0 0
 -0 0 0
 -0 0 -0
 -0 0 0
 -0 0 -0
 -0 0 0
 0 -0 -0
 -0 0 -0
 -0 0 0
 -0 0 0
 -0 -0 0
 0 0 -0
 0 -0 -0
 -0 -0 0
 30167.560949831714 4944.5573969277611 -999532.6255898237
 28471.411318884097 3334.8880915148252 -999589.04418712412
 27247.123312334999 2546.3404771506857 -999625.48507997592
 25958.885527133269 927.73302066400583 -999662.58086097799
 25075.997351676026 -329.82520186039068 -999685.49332885444
 24710.819028734441 -1047.7250122681266 -999694.0920577792
 24326.60066339434 -1812.9710858144199 -999702.42054123571
 23885.610022723293 -2327.4665230632631 -999711.98879148485
 23487.752544201136 -2472.4142039674043 -999721.067422522
 23147.401894036266 -2270.8938336999927 -999729.48382387543
 22800.646263104376 -1774.2813936333523 -999738.45702539664
 22334.030310041868 -1017.5311761780762 -999750.04662186233
 21607.932820470778 -5.8920370860580169 -999766.52134611399
 20533.23903293482 1282.1829441038165 -999788.34865271067
 19239.30558538438 2845.3321489651416 -999810.85871556425
 17591.811132378654 5180.6384046405337 -999831.83044290135
 15329.368526078941 7703.7528806592036 -999852.82049516938
 12859.949648149248 9373.3785813587638 -999873.37271727447
 9855.7873160474919 12002.38968495731 -999879.39577642619
 -0 0 -0
 -0 -0 -0
 0 0 -0
 -0 0 0
 -0 0 -0
 0 0 -0
 0 -0 -0
 -0 -0 -0
 -0 -0 0
 0 0 0
 0 0 0
 0 0 -0
 -0 0 0
 0 0 0
 -0 -0 -0
 29667.057447940431 1966.341727351436 -999557.90187592036
 28564.101643726885 750.21616366418846 -999591.68127440638
 26868.487605605231 -1327.4785034262418 -999638.09559990792
 25586.968715938619 -2966.3973614449565 -999668.19871326478
 24675.759461598591 -4423.4272109594676 -999685.72070761444
 24124.965036707843 -5508.3628029605616 -999693.77511376387
 23894.176965786282 -6234.355492955543 -999695.05406334542
 23780.772534742358 -6788.6035295532565 -999694.14808718849
 23689.059954861365 -7137.1874361788041 -999693.89764765301
 23608.403568120571 -7238.2030003888103 -999695.0793608469
 23529.394597471684 -7095.4084712102349 -999697.96577191423
 23414.192212046793 -6732.4982499589032 -999703.18048427324
 23196.172179134068 -6166.4200359030692 -999711.91493358545
 22791.363246291327 -5389.2634670329753 -999725.71718479786
 22131.012534769936 -4356.0224102723932 -999745.58931407507
 21197.35998717359 -2989.4206259469884 -999770.84139011346
 19901.418491876357 -1155.5298256404733 -999801.27940147859
 18065.665252827261 1040.9558028681311 -999836.2606697107
 15602.47166178469 3481.102991688947 -999872.21423540148
 12346.921693716127 6333.11771416183 -999903.71793723595
 9182.3189680812047 7890.5307546050344 -999926.70958564733
 -0 -0 -0
 0 -0 0
 -0 0 -0
 -0 -0 -0
 0 -0 -0
 0 -0 -0
 0 0 -0
 0 -0 -0
 -0 0 -0
 0 0 -0
 -0 0 0
 -0 0 0
 -0 0 -0
 28129.812660688236 -140.54996531090339 -999604.2686410367
 27428.354119477379 -1578.4144469541404 -999622.52575566259
 26135.946276470659 -3723.316469574057 -999651.46387463505
 24916.81204052121 -5747.6431447599516 -999673.00507516845
 24067.113388528789 -7313.1875071460527 -999683.59561494715
 23567.216361845374 -8510.6700428970798 -999686.02811501501
 23349.996638640539 -9376.1010036857224 -999683.38307033188
 23342.805101941769 -9968.3510727669982 -999677.8208137172
 23443.955787136438 -10372.842729427568 -999671.33852619864
 23581.329850480099 -10610.097099538461 -999665.61745516746
 23720.093869430661 -10676.929009608983 -999661.62291734933
 23838.077374425422 -10576.451103793333 -999659.88453530532
 23906.627967059059 -10317.89330813139 -999660.9496308869
 23883.823485030662 -9905.3924632770759 -999665.66719873133
 23717.423409297891 -9326.0238006944564 -999675.20180651324
 23356.288093637766 -8542.0913401439611 -999690.71041098691
 22755.231053214451 -7495.439947679437 -999712.96772608964
 21836.229298981758 -6120.8011976758044 -999742.82437169855
 20468.468606554517 -4397.8047475756193 -999780.82653464843
 18496.625379688736 -2286.3095116160516 -999826.30873486272
 15725.477334591482 287.62963329276812 -999876.30566575262
 12219.154785059827 3006.9899483247841 -999920.82199931704
 9020.0787495630557 4984.0654584847889 -999946.89722547622
 0 -0 -0
 -0 0 -0
 0 0 0
 0 0 -0
 0 -0 0
 -0 0 0
 -0 0 0
 0 -0 0
 -0 -0 -0
 -0 -0 -0
 0 0 0
 26630.650271260351 -1950.2609774602365 -999643.43890621793
 25918.810347056584 -3401.1555288829641 -999658.26531433302
 24836.344512617998 -5516.0054001091521 -999676.31245102349
 23885.89107470855 -7531.8544426603448 -999686.31849006598
 23206.763576972327 -9206.3598190365483 -999688.29595187574
 22824.300361902857 -10484.370873134465 -999684.51487475983
 22695.883245677305 -11429.634970575937 -999677.07802476804
 22761.934938099035 -12105.507201188222 -999667.62026849482
 22962.251977710788 -12570.66683281314 -999657.29793739354
 23235.531892158469 -12877.863824214686 -999647.07306179474
 23533.190829257393 -13053.803708610247 -999637.82798478124
 23823.250641575149 -13108.167256812616 -999630.24598100071
 24082.935421049049 -13045.945591689233 -999624.83738906984
 24289.540832227027 -12870.610722808953 -999622.11139299115
 24415.028223894427 -12580.406281947811 -999622.74872804282
 24425.371358835833 -12162.561507787974 -999627.66734997497
 24282.881058852261 -11589.76710125462 -999637.94395071873
 23944.030484065301 -10822.498763329788 -999654.71885281266
 23343.710059150657 -9815.3262130385974 -999679.31386620481
 22381.521697031789 -8523.7155453292635 -999713.16574296833
 20918.325456772647 -6882.9676568155428 -999757.49480377475
 18772.381692063249 -4803.5754364290733 -999812.24404816842
 15799.87442349668 -2247.0282913957071 -999872.64930693014
 12133.073800094362 666.34824213167155 -999926.16952462133
 8810.6334238517738 2968.0421756584283 -999956.78079820715
 0 -0 0
 0 0 0
 0 -0 -0
 0 -0 0
 0 -0 -0
 -0 -0 0
 0 -0 -0
 0 -0 0
 0 0 -0
 25709.024391836865 -3684.2027510146145 -999662.67946488294
 24698.602141838404 -5045.3859438616655 -999682.2110715569
 23524.770960911359 -7007.1733302562943 -999698.69694481266
 22651.486086557106 -8881.6640959580727 -999703.96929338889
 22122.818246186212 -10475.81735474673 -999700.37419398618
 21882.277357282655 -11753.30971475335 -999691.46522735083
 21871.294990760292 -12731.388832328872 -999679.7278097755
 22034.614648069281 -13458.298815676497 -999666.61940383853
 22322.196415100807 -13984.002631026418 -999653.0234124345
 22689.293179342574 -14352.649848455309 -999639.53374071268
 23095.876970104597 -14599.762315586993 -999626.64400630596
 23509.520044828081 -14747.47692921107 -999614.83301894041
 23906.18238602619 -14807.065456453651 -999604.54443559528
 24267.387341321224 -14783.709585968771 -999596.18638853589
 24575.961093847494 -14678.684982174924 -999590.19520176761
 24812.622041603445 -14488.411333915208 -999587.12462918402
 24954.298174892974 -14202.110978028692 -999587.70653023047
 24973.1771682586 -13800.287275548708 -999592.8633664985
 24833.337208014538 -13255.344035941367 -999603.72209071019
 24482.375416456776 -12532.911233953208 -999621.69815884333
 23841.798002559706 -11590.430917241196 -999648.55353226897
 22798.764579408973 -10367.131385311126 -999686.32026275748
 21200.465911577125 -8775.8660068944973 -999736.72755429009
 18873.327575381321 -6710.6927836155119 -999799.36192647961
 15691.922804750506 -4081.4385006807943 -999868.54406889656
 11786.59924888145 -1032.0204512322734 -999930.00305618113
 8182.0306274090917 1426.4976447950223 -999965.50914483122
 0 -0 0
 0 -0 0
 0 0 -0
 0 0 -0
 0 0 -0
 0 -0 0
 -0 0 -0
 25860.466822113209 -5396.2934971604927 -999650.99723465228
 24241.932748424064 -6591.7035127370336 -999684.38926564273
 22663.113863363749 -8337.2747696359929 -999708.39404269867
 21596.412020006763 -10004.610784037535 -999716.71124920296
 21030.75821369364 -11435.321726110133 -999713.42925159202
 20841.420163881943 -12610.858962411996 -999703.25669259613
 20914.225489180313 -13549.082038481407 -999689.46055667836
 21166.590511857983 -14278.345558143781 -999673.99900878966
 21539.545580386213 -14832.857931045301 -999657.95865475293
 21989.130089967304 -15246.135540812182 -999641.95265552856
 22480.821221698207 -15547.545791785102 -999626.3734501258
 22986.663874477239 -15760.382864607007 -999611.53635593993
 23484.541810340419 -15900.40629494707 -999597.74578357965
 23957.4798138884 -15976.610475379308 -999585.30755443033
 24391.994472889728 -15993.032735519699 -999574.53624507401
 24775.810870703444 -15949.862271675829 -999565.78627382673
 25095.666947415259 -15843.300056476686 -999559.50165249547
 25335.542474736241 -15664.682962254203 -999556.26554746926
 25474.814820472388 -15399.756979020811 -999556.84245311911
 25485.044966222977 -15028.464924729649 -999562.23304258334
 25324.446384219071 -14524.404956359554 -999573.76620037237
 24930.794752326903 -13852.208016254352 -999593.20316121192
 24213.661312776214 -12961.210235770352 -999622.78167069319
 23047.398547581884 -11777.934713166249 -999664.99272210244
 21270.868063195954 -10201.993612404036 -999721.69602253335
 18701.466538016859 -8114.6743549750345 -999792.18201056169
 15190.835937382737 -5443.2903096380742 -999869.79607053264
 10832.712605722727 -2369.8269975104226 -999938.51623867545
 6643.7753765740572 67.955852250652782 -999977.92757177807
 0 0 0
 0 0 0
 -0 0 0
 0 -0 0
 -0 0 -0
 27134.166275042251 -6904.4572907021238 -999607.95589574985
 24868.169169336597 -7889.2118093296222 -999659.60931668757
 22590.293376802394 -9425.3263887538942 -999700.37604655093
 21035.047226773153 -10904.323622319844 -999719.27185310749
 20193.835425818113 -12170.258866131537 -999722.00826526084
 19885.384356377068 -13215.575345683457 -999714.9193931648
 19937.069609497801 -14066.524794800984 -999702.27874881984
 20220.824531427781 -14751.708296715582 -999686.70360148221
 20649.501587295807 -15296.931890070729 -999669.74644576828
 21164.737076510515 -15726.021761967253 -999652.31262875826
 21726.564512428922 -16060.471755963663 -999634.94218712836
 22306.481006262929 -16318.664948282963 -999617.98807315517
 22883.420728928955 -16515.108354340162 -999601.72081273817
 23441.637317242406 -16659.913290350352 -999586.38292498002
 23969.302657105232 -16759.020929838356 -999572.21237267554
 24457.113203919918 -16814.858494017306 -999559.45803516696
 24896.741487602769 -16826.826210277664 -999548.40312162414
 25279.237004848845 -16791.304291417586 -999539.40006217163
 25593.409992867513 -16701.2973375437 -999532.91293092491
 25823.911766013531 -16545.979213691255 -999529.5674230759
 25948.438693170468 -16310.181282566245 -999530.2179103524
 25933.589496178389 -15973.337986119694 -999536.04307669925
 25729.385052335911 -15507.070290655975 -999548.66290532798
 25262.608359418376 -14870.790518127951 -999570.23775632912
 24429.366871583872 -14006.057479873642 -999603.43956397241
 23088.010683972909 -12831.738332002324 -999651.08425591956
 21053.868580562834 -11244.866699337701 -999715.10321226332
 18103.582870261169 -9141.539265335743 -999794.32512248238
 14025.278663470606 -6490.4871110278991 -999880.57543662353
 8853.7034781058992 -3563.5959650986797 -999954.45532210066
 3729.9261991048193 -1544.2363308820532 -999991.85145915241
 0 0 0
 -0 -0 -0
 0 -0 -0
 0 0 -0
 25389.861846419382 -8442.9441922634232 -999641.97171226563
 23154.938559454498 -9931.2248246183681 -999682.55941263202
 21074.888533677065 -11402.265111349763 -999712.87749214459
 19778.269152613488 -12613.209537522493 -999724.82564678229
 19176.720692189094 -13581.015345468453 -999723.86657800665
 19071.750377903758 -14357.149163942717 -999715.02969866735
 19292.804787308651 -14985.542345248274 -999701.5660706237
 19716.817925557094 -15498.089570408656 -999685.47869345313
 20260.522605526803 -15917.79582560356 -999668.01239201648
 20868.794462661568 -16262.262496865764 -999649.95485227637
 21505.050822739842 -16545.577535387965 -999631.82054851169
 22144.606862516637 -16779.019695687937 -999613.96593132708
 22770.488424910083 -16971.17296874641 -999596.66073119512
 23370.890122383807 -17127.89750964833 -999580.13016555423
 23937.494681264674 -17252.448726836908 -999564.57988531783
 24464.12045782631 -17345.728294004199 -999550.21510686283
 24945.435078846058 -17406.470543165269 -999537.26296319591
 25375.634355163776 -17431.236383742009 -999526.00225267129
 25746.996558750387 -17414.20153139588 -999516.80213652621
 26048.119862527205 -17346.793782438519 -999510.17213287891
 26261.537032804423 -17217.108135614439 -999506.82982164831
 26360.41608910498 -17008.836440042454 -999507.79283933807
 26304.155119500421 -16699.299148617072 -999514.49455792992
 26032.700352000469 -16256.315889807871 -999528.90438749862
 25459.350620420599 -15634.157993292794 -999553.59764738334
 24461.707782702368 -14769.574000982784 -999591.65889686323
 22870.499896608151 -13580.241951422831 -999646.19604289008
 20459.51163320179 -11971.540525431243 -999719.00582172547
 16958.184780163607 -9866.7446132054974 -999807.51513463806
 12194.480127452218 -7312.6730429363488 -999898.90462355653
 6935.816208146769 -4859.1312444822188 -999964.14100560406
 -0 0 -0
 -0 -0 -0
 0 0 -0
 25984.761946573293 -9122.5386529219159 -999620.71378853766
 23901.085927983699 -10004.53672101568 -999664.26731001073
 21526.118413649805 -11407.668004301668 -999703.20162373444
 19774.014354569037 -12667.561564877158 -999724.22259356361
 18782.070425063979 -13655.980382739817 -999730.33765627712
 18407.864707019042 -14418.328497563105 -999726.59378465288
 18468.700322435154 -15017.57830573365 -999716.64958138589
 18813.436951846106 -15501.742113005443 -999702.83113609347
 19332.519424770588 -15902.938520666452 -999686.62601792323
 19950.89828410613 -16242.115668132985 -999669.02289521846
 20618.478393780038 -16533.301905020206 -999650.7031342712
 21302.171507407154 -16786.292531656352 -999632.15127971477
 21980.201158729906 -17008.067159687871 -999613.72359952808
 22638.299691776778 -17203.44431709608 -999595.69271315599
 23267.223138874833 -17375.369162887153 -999578.27751200111
 23861.044737755874 -17525.09108401103 -999561.66479438369
 24415.835300038412 -17652.301077468568 -999546.02858161158
 24928.485180612373 -17755.207570088889 -999531.55189355719
 25395.522167056009 -17830.494556176171 -999518.45451584563
 25811.808083931795 -17873.148990767659 -999507.02904411429
 26168.965475243891 -17876.129360868581 -999497.68846407509
 26453.340363788077 -17829.814286442379 -999491.02972768503
 26643.278465056181 -17721.06351409361 -999487.91869665077
 26705.479294665369 -17531.695984125618 -999489.59825080843
 26590.106514357612 -17236.237998906217 -999497.81307174463
 26224.149396263674 -16799.037536356831 -999514.9255145191
 25502.20389813399 -16171.176047707542 -999543.96134515863
 24273.623049184112 -15288.272494664941 -999588.44528545579
 22326.23306910363 -14071.835690845888 -999651.7007224235
 19374.393006468516 -12441.307304117332 -999734.88824197568
 15094.026390798181 -10359.047315239624 -999832.41621085408
 9419.3073786892601 -7990.8233453975099 -999923.70878520946
 3873.1314570329014 -6392.1655503645152 -999972.06914608018
 -0 -0 0
 0 0 -0
 24514.741138367714 -9977.4408369146386 -999649.67770777817
 22294.22893388617 -11151.681557952204 -999689.25539623247
 20112.614522517975 -12404.544993986137 -999720.76601447118
 18688.442305641398 -13446.442644251651 -999734.93252181786
 17975.447886544702 -14248.042137014028 -999736.90367443184
 17799.847946964514 -14859.757394672752 -999731.14036886755
 17995.92517887531 -15338.971488007079 -999720.39222506934
 18433.587709797128 -15729.350862486392 -999706.3520682411
 19018.577939754712 -16059.991027367736 -999690.13718319254
 19685.448060063572 -16349.282779845182 -999672.538428089
 20389.890741774907 -16608.672571725343 -999654.14236672048
 21102.445187311081 -16845.278122062642 -999635.39523773687
 21803.877574508977 -17063.466155824335 -999616.64104068687
 22481.965895396821 -17265.720776451712 -999598.14730497962
 23129.281042166534 -17453.105164908829 -999580.1245916083
 23741.59356652811 -17625.507897441359 -999562.74350651924
 24316.619731777282 -17781.778077789855 -999546.15219769254
 24852.913548229655 -17919.76612308816 -999530.49711865117
 25348.770846738629 -18036.273623047076 -999515.94917257549
 25801.037551060337 -18126.887973487504 -999502.7375618763
 26203.70501658037 -18185.687139534653 -999491.19387149508
 26546.145175475962 -18204.751314355784 -999481.81034269196
 26810.801823798403 -18173.40309653819 -999475.31651634886
 26970.090011523083 -18077.059386112276 -999472.77810289618
 26982.138164234486 -17895.630868782464 -999475.71787207259
 26784.775145537591 -17601.474649479598 -999486.24998574483
 26286.812643510071 -17157.064839928949 -999507.19787659531
 25355.294212304369 -16512.76622035147 -999542.1139737732
 23797.696029855259 -15605.720632693925 -999594.98355444171
 21342.097548613729 -14362.855498804851 -999669.05686539377
 17641.799616220189 -12719.315593216495 -999763.46498416387
 12457.298448323383 -10704.991513640198 -999865.10033707169
 6754.2400021046224 -8827.2796059378543 -999938.22778047284
 0 0 0
 -0 -0 0
 22500.295732670282 -10669.275711575801 -999689.90354396042
 20617.76831363024 -11917.059696354363 -999716.40544604394
 18868.114264636428 -13046.993732130997 -999736.8504854918
 17786.311922345325 -13906.771120272668 -999745.09192354116
 17316.776303893952 -14550.456061122568 -999744.17401996115
 17304.399254525855 -15042.409262591156 -999737.1072887195
 17606.762020715174 -15433.388068218694 -999725.86865794461
 18113.37888003081 -15759.286457405256 -999711.73364920635
 18743.840628588267 -16043.812345897648 -999695.58592798631
 19441.622866107085 -16301.851759092822 -999678.08465003211
 20167.935744220889 -16542.355497656146 -999659.74453431205
 20896.749423870642 -16770.433623505785 -999640.97476023633
 21611.100832757733 -16988.727184831594 -999622.10033063777
 22300.444582678079 -17198.253010259057 -999603.37647729565
 22958.748967813892 -17398.897949372036 -999585.00098589936
 23583.063532634002 -17589.702504569592 -999567.1270506134
 24172.354173924214 -17769.002891636072 -999549.8786103311
 24726.45707835933 -17934.475216557243 -999533.36958755867
 25245.048358849377 -18083.081209966153 -999517.728560786
 25726.54030428021 -18210.92170574265 -999503.13028754422
 26166.810323301808 -18312.971558879766 -999489.83642165561
 26557.64200942788 -18382.677011430293 -999478.24830598128
 26884.711348721266 -18411.358435433383 -999468.97609493497
 27124.876640714319 -18387.377895348938 -999462.92847777007
 27242.393948674999 -18295.020381409657 -999461.42707019427
 27183.4610456353 -18113.086948189983 -999466.34536976158
 26868.162918015129 -17813.199674626248 -999480.26080496586
 26178.581137764457 -17357.832300952199 -999506.57203813584
 24942.129855343821 -16698.028940025688 -999549.43148790649
 22912.831418219463 -15771.06518637611 -999613.06296951114
 19772.26606623513 -14501.930094610254 -999699.33055801166
 15262.558564591616 -12839.886915605797 -999801.07601965347
 10043.089418726689 -11020.418661118851 -999888.83718514489
 -0 0 -0
 23632.020676288354 -11725.125554485736 -999651.96395019733
 21521.181895333604 -12043.400032066213 -999695.85136955325
 19414.795307019256 -12815.956445067242 -999729.37187200063
 17917.756045554666 -13573.37480079729 -999747.32683554047
 17082.334131720247 -14190.861666029623 -999753.37624125474
 16790.85407641673 -14676.114597331833 -999751.30851612811
 16897.394109196815 -15062.941914542425 -999743.76009715477
 17276.126086707674 -15383.088221864942 -999732.41223049012
 17830.6314503676 -15660.711864129044 -999718.36568405118
 18490.76340703154 -15912.497921672219 -999702.39775571099
 19206.9359200172 -16149.155979986666 -999685.09960571991
 19944.852364459079 -16377.051194415955 -999666.94206537376
 20681.368165032542 -16599.555800390357 -999648.30603470339
 21401.437348959131 -16818.043421790575 -999629.49731130968
 22095.900482722576 -17032.565985683403 -999610.7556833314
 22759.847106112888 -17242.296206323648 -999592.26316595683
 23391.339080126723 -17445.795088569121 -999574.15407250612
 23990.331882357048 -17641.158131259661 -999556.52842446195
 24557.686681593324 -17826.055878512874 -999539.46983431547
 25094.191781775738 -17997.690055165036 -999523.06861397531
 25599.527273619467 -18152.656785693522 -999507.45132539561
 26071.094199600593 -18286.723673965873 -999492.81827560288
 26502.603044876127 -18394.497487188113 -999479.49178261752
 26882.265458176273 -18468.976290657287 -999467.9788360463
 27190.349907736858 -18500.953469221484 -999459.05348474579
 27395.728378420317 -18478.267094743289 -999453.8647240256
 27450.823825738036 -18384.866925528462 -999454.07545290398
 27284.06720384875 -18199.680811489372 -999462.03094223421
 26788.64675351472 -17895.193870828178 -999480.93050414976
 25806.382122762654 -17435.602357947086 -999514.89754387818
 24107.359615462225 -16774.502666381657 -999568.63259741501
 21374.300245690956 -15853.57764050739 -999645.83896748326
 17234.066660013257 -14611.379082600826 -999744.71468853636
 11538.32182712682 -13054.887835443637 -999848.2069959509
 5645.5425668694788 -11803.439535601292 -999914.39966841927
 23051.085737752335 -12661.552590808798 -999654.1064449749
 20848.1816073236 -13034.669918406418 -999697.67965309694
 18692.010297271663 -13474.630468312944 -999734.48629363033
 17284.89847198283 -13925.857771671081 -999753.6210337705
 16571.679259043478 -14334.874410461291 -999759.91659106419
 16383.009330791207 -14685.17314424641 -999757.94205147016
 16562.969204636109 -14984.244638276086 -999750.53911650716
 16989.749015698708 -15246.487457659643 -999739.41257138958
 17573.737328314342 -15485.364192874642 -999725.64599100361
 18250.876861640285 -15711.051133330631 -999709.99213075137
 18976.162988471307 -15930.317207829785 -999693.01799697138
 19718.491166770713 -16147.120058652303 -999675.17305368616
 20456.877722167184 -16363.321563903666 -999656.82004438725
 21177.7676022796 -16579.310339928859 -999638.24888208229
 21873.099445430857 -16794.486420808589 -999619.68405314616
 22538.860920565159 -17007.606777636713 -999601.29104563512
 23173.9295631319 -17217.017399281434 -999583.18478277535
 23779.067635990803 -17420.779468563342 -999565.44177210866
 24355.979667472173 -17616.710436070141 -999548.11678470473
 24906.37601261614 -17802.337234378901 -999531.26475509093
 25430.986896094622 -17974.778108310526 -999514.96850094653
 25928.463577717583 -18130.545169900583 -999499.37374084489
 26394.068226364128 -18265.28116747049 -999484.73358342773
 26818.002676137792 -18373.417258448317 -999471.46646150411
 27183.140606926478 -18447.760523652632 -999460.23282490124
 27461.793061607957 -18478.991612849404 -999452.03826437495
 27610.930056154397 -18455.066845904108 -999448.37137750513
 27564.974463733244 -18360.472493687877 -999451.38212552504
 27224.918011317284 -18175.268790396647 -999464.08812106587
 26442.296217227744 -17873.85004539803 -999490.53545059368
 24997.476454167547 -17423.614305312567 -999535.66411382379
 22577.711043474967 -16784.727501248319 -999604.18160727306
 18790.005496143916 -15915.865585774871 -999696.76448216545
 13386.606935264712 -14813.435236745263 -999800.66057752119
 7466.3992547767657 -13738.540300204699 -999877.74522317888
 22251.198198482398 -12902.515900653871 -999669.14990018855
 20223.787721142104 -13329.961085646901 -999706.61223564239
 18171.774575030264 -13723.682999178363 -999740.68994601397
 16839.94785417548 -14062.946348882575 -999759.29587889148
 16195.833366068093 -14358.665134745563 -999765.73441838217
 16064.100748605211 -14618.656103915453 -999764.09195412404
 16285.015036621324 -14851.754326335584 -999757.08233484754
 16738.095956478501 -15067.206723305311 -999746.3755499738
 17337.128938628259 -15272.963438170809 -999733.04464140895
 18021.521148580738 -15474.904860571363 -999717.83623932966
 18749.07999021011 -15676.821188172329 -999701.31003062858
 19490.769472052474 -15880.724099456162 -999683.90629611735
 20227.075966033062 -16087.244476385664 -999665.97719589376
 20945.502845725605 -16296.015740461859 -999647.80086864915
 21638.80334559199 -16505.998573071149 -999629.58849809796
 22303.655590034738 -16715.739827493424 -999611.49002466979
 22939.587094211322 -16923.552524024628 -999593.60177719919
 23548.019176896581 -17127.623068260527 -999575.97776300961
 24131.360851861169 -17326.036226750661 -999558.64554917766
 24692.100578163911 -17516.73165981624 -999541.62708763441
 25231.856595954308 -17697.387564231092 -999524.96511399001
 25750.325528322704 -17865.252279371442 -999508.75608779944
 26244.039647677389 -18016.921729532456 -999493.19203002227
 26704.784468231581 -18148.08413579475 -999478.61484311183
 27117.446480031522 -18253.224693893735 -999465.58914485725
 27456.931535579344 -18325.298202989859 -999455.00166661944
 27683.597431608825 -18355.33059134824 -999448.197893281
 27736.356659772875 -18331.889882784315 -999447.16535321041
 27522.231196978872 -18240.275088930492 -999454.76093449083
 26900.876623492291 -18061.236176267634 -999474.92944279138
 25663.359616517162 -17769.136149092916 -999512.70615921065
 23510.334952439087 -17330.396337345257 -999573.36974992207
 20062.62460910526 -16707.510032065806 -999659.11700055155
 15057.941024065753 -15893.887773119764 -999760.29264197696
 9425.4929808248362 -15062.644201091363 -999842.12595376256
 21394.919470511948 -12964.31785841565 -999687.04297060729
 19563.780375379887 -13409.366761145246 -999718.68412093259
 17692.832247610171 -13800.538083077192 -999748.22272193898
 16474.456709093156 -14096.226958622343 -999764.91669875628
 15897.920043929158 -14328.247829132799 -999770.95249483222
 15806.542562564804 -14525.812436280092 -999769.55043914169
 16050.695922004661 -14706.813815919984 -999763.01431279362
 16515.816133500473 -14881.485520261935 -999752.8540625202
 17119.578241551961 -15055.713849028467 -999740.08898379537
 17804.070131472963 -15232.839576335773 -999725.45015378867
 18528.956961909225 -15414.553745921228 -999709.49244603945
 19266.492424007902 -15601.377192467575 -999692.65241841925
 19998.070728836836 -15792.9759322595 -999675.27681659069
 20711.86827605516 -15988.410883665461 -999657.63600841386
 21401.181422038288 -16186.357546737261 -999639.9308066431
 22063.18071409822 -16385.288019200805 -999622.29786720208
 22697.884710780403 -16583.61068971339 -999604.81685821642
 23307.240630474662 -16779.746677048621 -999587.52124846319
 23894.239595464507 -16972.145385539508 -999570.41352531395
 24462.030302178144 -17159.228966837465 -999553.48527968174
 25012.990840814371 -17339.284116380866 -999536.74245398748
 25547.709091828849 -17510.302098292144 -999520.23685395473
 26063.780483962972 -17669.794637684219 -999504.10589669202
 26554.281033947154 -17814.588507802957 -999488.62454510573
 27005.689315400472 -17940.622612753821 -999474.27520915552
 27394.915138435812 -18042.73412294007 -999461.84437922714
 27684.918781675788 -18114.415917679227 -999452.55675695464
 27818.157503952829 -18147.439780275101 -999448.25806167
 27706.78812541498 -18131.145913369186 -999451.64737451973
 27218.337854662532 -18051.016589939736 -999466.5191413362
 26156.216152222027 -17886.1577403958 -999497.84277800412
 24239.243303486906 -17606.307107462824 -999551.13777840906
 21107.049543493358 -17174.012854271376 -999629.70431157644
 16482.623502490704 -16573.187511628301 -999726.78896695562
 11156.54047703805 -15918.399515849162 -999811.05022971134