# OOMMF OVF 2.0
#
# Segment count: 1
#
# Begin: Segment
# Begin: Header
#
# Title: Oxs_TimeDriver::Magnetization
# Desc: Oxs vector field output
# Desc:  MIF source file: /mnt/gpfs/work/plgrid/groups/plggspinsym/MF/switching-obrazki/p-ap/Anisotropy.mif
# Desc:  Iteration: 39400, State id: 275950
# Desc:  Stage: 0, Stage iteration: 39400
# Desc:  Stage simulation time: 5.80081e-09 s
# Desc:  Total simulation time: 5.80081e-09 s
# meshunit: m
# meshtype: rectangular
# xbase: 1.0000000000000001e-09
# ybase: 1.0000000000000001e-09
# zbase: 3.4999999999999998e-10
# xnodes: 35
# ynodes: 35
# znodes: 5
# xstepsize: 2.0000000000000001e-09
# ystepsize: 2.0000000000000001e-09
# zstepsize: 6.9999999999999996e-10
# xmin: 0
# ymin: 0
# zmin: 0
# xmax: 7.0000000000000005e-08
# ymax: 7.0000000000000005e-08
# zmax: 3.4999999999999999e-09
# valuedim: 3
# valuelabels: Magnetization_x Magnetization_y Magnetization_z
# valueunits: A/m A/m A/m
#
# End: Header
#
# Begin: Data Text
 -0 0 -0
 0 0 -0
 -0 -0 0
 -0 0 0
 0 0 0
 -0 0 -0
 0 0 0
 0 -0 0
 -0 0 0
 0 0 0
 0 0 0
 -0 -0 0
 0 0 0
 23694.118531831198 34917.338483666535 -999109.28742566321
 21199.847973197251 34519.930136124167 -999179.13352376944
 18789.859350186052 34087.569869111263 -999242.20225429756
 16917.995967306575 33818.659932579467 -999284.7840594867
 15349.364135592979 33746.053936826829 -999312.56414813758
 13757.651190380786 33867.590518101388 -999331.63331609883
 11802.142939113024 34179.477262551896 -999346.02253478917
 9197.8300888114172 34643.292195800699 -999357.41465578449
 6307.6057244526437 35055.895345827674 -999365.44782753382
 0 0 0
 -0 0 -0
 -0 0 -0
 -0 0 0
 0 -0 0
 -0 0 0
 -0 -0 0
 0 0 0
 0 -0 0
 0 -0 -0
 0 -0 0
 -0 -0 0
 0 0 -0
 -0 -0 -0
 -0 -0 -0
 -0 -0 -0
 -0 0 -0
 0 0 -0
 0 0 -0
 -0 -0 0
 0 0 0
 0 0 -0
 0 0 0
 28784.455188097185 32835.611853257222 -999046.18398437754
 26634.021131869049 31679.199600101801 -999143.16152943985
 24939.257906446481 29987.57317398013 -999239.09995066281
 23197.615490288801 29444.503993698276 -999297.19894540391
 20836.135640288812 28359.801059744284 -999380.59673751495
 18716.760957825332 27632.670228882118 -999442.90401966905
 17032.566348888951 27262.808995047944 -999483.18191416818
 15593.655805829898 27173.007910824977 -999509.11228446919
 14136.417946489815 27334.491237433067 -999526.38148096576
 12390.278187870565 27776.027862218143 -999537.37963251013
 10148.836181560666 28580.318610698596 -999539.97744576028
 7616.8666444276587 29766.123041599363 -999527.86917703971
 5915.2686478828073 30417.361682465031 -999519.78154766979
 4020.6803258259533 32098.650131218819 -999476.61843060178
 1457.5064309090919 33224.969311068904 -999446.83554918622
 -0 0 -0
 0 -0 0
 -0 0 -0
 0 -0 -0
 -0 0 0
 -0 0 0
 -0 0 -0
 -0 0 0
 -0 0 -0
 -0 0 0
 0 -0 -0
 -0 0 -0
 -0 0 0
 -0 0 0
 -0 -0 0
 0 0 -0
 0 -0 -0
 -0 -0 0
 33877.619626546948 30328.252988830511 -998965.71710899274
 31268.525318648142 28887.70803625002 -999093.47893418348
 28387.122672893773 27797.469744567261 -999210.42425614945
 25669.032849970867 25867.341736937098 -999335.77009132004
 23590.078787209375 23959.516377759064 -999434.56502052047
 21789.588032181226 22463.897268966975 -999510.17362149816
 19965.041693721669 21238.34480901904 -999575.07462918514
 18338.272787748185 20458.623250735789 -999622.5049916826
 16978.723612657177 20064.969097215631 -999654.50029478315
 15777.474087478313 19973.731056969744 -999676.00820419949
 14564.651625330016 20154.458108978539 -999690.78656420857
 13168.64539474433 20640.293672325173 -999700.23759904527
 11479.304419785445 21519.199273983984 -999702.53057229205
 9579.9345065602738 22853.141696032675 -999692.93223943072
 7731.6035442382426 24447.382590724661 -999671.21984735446
 5517.6755984254405 26414.582142022871 -999635.8462491493
 2569.0720594614677 28408.39157927304 -999593.09879402025
 -437.95529587893543 29565.178742111519 -999562.75861053646
 -3493.2867424750566 30943.885087113867 -999515.0188583713
 -0 0 -0
 -0 -0 -0
 0 0 -0
 -0 0 0
 -0 0 -0
 0 0 -0
 0 -0 -0
 -0 -0 -0
 -0 -0 0
 0 0 0
 0 0 0
 0 0 -0
 -0 0 0
 0 0 0
 -0 -0 -0
 36477.235569806675 26873.458474881372 -998973.08698221867
 33297.966774913621 25875.68492544863 -999110.45152089966
 29680.323681857837 23599.624560689241 -999280.80943583348
 26574.783386599021 21422.52452102492 -999417.25837164791
 24039.557362230669 19389.852813062211 -999522.95285786979
 22085.442498436194 17673.092932539814 -999599.8674548961
 20502.833961033139 16323.013918255712 -999656.53752485942
 19109.609214318716 15311.355649893158 -999700.14765620534
 17898.37390929004 14657.950561406657 -999732.36053292907
 16856.602562579723 14320.833180071708 -999755.35441780742
 15912.497208749634 14249.056699740151 -999771.85238220694
 14962.47680446447 14423.160834645898 -999784.02503711462
 13902.887530617585 14865.181639126973 -999792.84659030579
 12662.939628986816 15628.009063135454 -999797.68718109932
 11234.075627446595 16752.056610033869 -999796.56137842906
 9608.8275304046492 18208.688123110649 -999788.03459049587
 7569.7457075153779 20018.877344932043 -999770.94551690796
 4896.0587169077735 22141.065338307741 -999742.86785889394
 1610.2214186924234 24393.981202156439 -999701.12577114359
 -2350.4930897889262 26712.995358504384 -999640.38086764549
 -5925.4289349410756 27748.422219109259 -999597.37612515106
 -0 -0 -0
 0 -0 0
 -0 0 -0
 -0 -0 -0
 0 -0 -0
 0 -0 -0
 0 0 -0
 0 -0 -0
 -0 0 -0
 0 0 -0
 -0 0 0
 -0 0 0
 -0 0 -0
 37895.93355687154 24788.132720124911 -998974.19721237174
 34958.341864989408 23141.612754697875 -999120.80355338531
 31030.303472731954 20542.892052377534 -999307.31502001639
 27467.287008545263 17987.367650552715 -999460.8560365903
 24637.964734858262 15847.800075717192 -999570.81686415977
 22461.232299332296 14099.8031229427 -999648.28244512575
 20803.599106408932 12716.750923863283 -999702.70306234574
 19503.59841148365 11662.262668766751 -999741.76729715988
 18431.421573267013 10898.886862179668 -999770.7221978216
 17524.873544145394 10405.533463835071 -999792.2802665534
 16739.815896989738 10151.397521852736 -999808.34548031678
 16019.941591672339 10107.655848463697 -999820.5822869665
 15297.842997046304 10263.521186146878 -999830.30366782716
 14506.11284419444 10631.590670606116 -999838.25790472934
 13588.446796120008 11241.557668922598 -999844.47865397832
 12499.846271382556 12122.944307864915 -999848.38253832259
 11172.548734400996 13293.283045828652 -999849.2200230197
 9461.3486553645707 14787.647833913046 -999845.8923019896
 7191.9150042978972 16643.314010600185 -999835.62471904128
 4214.1435678311391 18883.065101645876 -999812.81790460995
 400.31650033769887 21528.258595278781 -999768.16003939335
 -3888.7005505430734 24213.612282922724 -999699.2442671149
 -7240.9892894567356 25907.701670789836 -999638.11405340442
 0 -0 -0
 -0 0 -0
 0 0 0
 0 0 -0
 0 -0 0
 -0 0 0
 -0 0 0
 0 -0 0
 -0 -0 -0
 -0 -0 -0
 0 0 0
 38955.409001851425 23518.451315066704 -998964.14277852781
 36094.018130018776 21523.489543970634 -999116.59042029735
 32166.413565705687 18548.048143698674 -999310.408105699
 28412.81784509611 15721.948854509747 -999472.62699201389
 25323.653577700523 13391.459572602527 -999589.60647857469
 22945.155282289881 11573.207603179402 -999669.73582020844
 21152.926318738409 10173.883282975235 -999724.4849492776
 19802.723458344106 9111.79588221837 -999762.38542937441
 18763.569506743199 8325.6494373374626 -999789.28380974964
 17934.25933806851 7771.1219308431091 -999808.96775630629
 17248.409717052426 7418.2997571317756 -999823.71505728248
 16657.088939974088 7242.6440990227338 -999835.02913955785
 16113.841194537126 7226.3149036049799 -999844.05008724798
 15570.474360022423 7363.1419680227054 -999851.66123208636
 14978.545254366292 7660.5990502653203 -999858.46918664139
 14290.63973010597 8137.163235325319 -999864.77295211575
 13455.34200204178 8816.8864465808165 -999870.59977028845
 12400.75377025797 9728.3656077739906 -999875.78238925792
 11016.19576026405 10914.978832314155 -999879.7461035311
 9159.4065271212494 12437.807606771881 -999880.69599028036
 6670.3317056380938 14377.655141615767 -999874.38696446526
 3400.0349123656547 16827.774383730994 -999852.6220258089
 -624.67498334109666 19771.483360486742 -999804.32997006516
 -4926.2867614602419 22851.452627761835 -999726.73406863771
 -8208.3970662993634 24903.64249959281 -999656.15628967877
 0 -0 0
 0 0 0
 0 -0 -0
 0 -0 0
 0 -0 -0
 -0 -0 0
 0 -0 -0
 0 -0 0
 0 0 -0
 40224.162635136876 22441.408563030076 -998938.63671499328
 37213.143362364812 20397.135002898314 -999099.16366933542
 33178.408130449046 17286.319557758819 -999299.94315524527
 29310.898972604493 14285.46174546258 -999468.25701676833
 26062.847763827187 11805.986934682454 -999590.58951099461
 23512.339058107147 9885.4366662621524 -999674.67110752279
 21579.883811917174 8439.814069242997 -999731.5030312594
 20135.830881795813 7363.4654316189244 -999770.13742736762
 19054.775950666251 6570.6607796792368 -999796.85033029981
 18231.928544103524 5999.6454477708021 -999815.78355018166
 17587.044744663603 5607.748742589316 -999829.60998921678
 17062.240933848178 5366.2064522585242 -999840.02908596687
 16613.517872097578 5255.1228085911207 -999848.17582880042
 16202.637475028123 5262.1960951496185 -999854.88138584828
 15792.747908950743 5383.5575150571967 -999860.79352176143
 15346.560301769467 5624.19934241792 -999866.41681209637
 14824.378877651794 5997.1414317008066 -999872.1278671287
 14179.320753002525 6522.3888122900726 -999878.19523538218
 13348.66584754348 7228.3838647682733 -999884.77515501459
 12245.18699167293 8157.4876317518238 -999891.74953645701
 10755.233844348821 9371.3407685055299 -999898.2462816675
 8741.7547081072535 10955.621579107137 -999901.77321596863
 6059.8318647487768 13016.186272910789 -999896.92335394234
 2613.3514363713944 15636.147507964826 -999874.3327465601
 -1538.0563755985875 18771.65398879032 -999822.61396165204
 -5955.2657901062421 21997.867534275116 -999740.28058957064
 -9392.4876005602582 24103.662749796062 -999665.34131113964
 0 -0 0
 0 -0 0
 0 0 -0
 0 0 -0
 0 0 -0
 0 -0 0
 -0 0 -0
 42305.885602873728 21001.25694311042 -998883.95684892556
 38833.627346678375 19242.387174437201 -999060.39853600878
 34445.646245712291 16266.643327318774 -999274.18347997824
 30323.219890862591 13281.614294631812 -999451.90032196091
 26880.18871181057 10755.4401866227 -999580.80011633353
 24163.104571086769 8775.1995245052076 -999669.51551539882
 22088.199918200753 7282.9278242601886 -999729.49860783853
 20533.643792118779 6182.0252382114486 -999770.04957968846
 19377.703501041851 5379.8773369051069 -999797.76031298726
 18515.546993980075 4803.314138211882 -999817.03460823419
 17863.471085974368 4399.4331176859769 -999830.75637279917
 17357.716287433945 4131.6697851454865 -999840.80682380218
 16950.708686630009 3975.5105397984757 -999848.42290767701
 16605.626615246529 3915.0323749445733 -999854.45225103537
 16291.277123949014 3941.1993311315418 -999859.52075154206
 15978.463664464933 4051.4119268734048 -999864.12814958114
 15637.451714248151 4249.3853166332428 -999868.69779402285
 15235.388517520754 4545.0120867483511 -999873.60491306672
 14732.538923779099 4954.6784036308263 -999879.19443239528
 14077.065281536836 5503.0212227214352 -999885.76997099083
 13199.618970943873 6226.5574366438905 -999893.49434902822
 12009.666394427542 7178.0892992025947 -999902.11668298196
 10394.029227118404 8430.6722776882762 -999910.43995018478
 8220.754582302121 10076.730494848362 -999915.43577276182
 5355.7254105082711 12211.847822623862 -999911.08953650692
 1699.5797842822776 14890.377178636025 -999887.68774099567
 -2720.034050250872 18016.934391978259 -999833.98196394637
 -7504.5484895865238 21108.069988674895 -999749.03407471266
 -11422.937027025131 22918.836036989891 -999672.06796248246
 0 0 0
 0 0 0
 -0 0 0
 0 -0 0
 -0 0 -0
 45648.843152759066 18447.179687218384 -998787.20690665732
 41534.522599927885 17581.456347089377 -998982.37012727687
 36442.321315016321 15119.813240184412 -999221.37110089604
 31777.403709969869 12379.702605752746 -999418.30060132802
 27956.416270917336 9949.1944207303623 -999559.62919661042
 24977.465155131853 7990.148955930802 -999656.08273750136
 22714.218959606435 6489.9319418816212 -999720.93358118914
 21020.917436067724 5376.2130220223899 -999764.5809707843
 19764.857718532963 4566.3288369123138 -999794.22834917344
 18835.107699981967 3987.0575393803674 -999814.65386845975
 18143.481722227363 3580.953778108088 -999828.98079673317
 17622.173045490152 3306.0229357817489 -999839.25169474271
 17220.081191310743 3132.9424291898263 -999846.81500492862
 16898.708557267269 3042.0289211726936 -999852.57898809225
 16627.982025826816 3020.7979114008126 -999857.18229841569
 16382.556424009143 3062.4683946865462 -999861.10692052927
 16138.881678596266 3165.2477558222681 -999864.74970608309
 15872.825394216621 3332.0708189421989 -999868.46670852788
 15557.295873915949 3570.6650391073485 -999872.6023330522
 15159.352800473574 3894.1390911512731 -999877.50734947994
 14636.603281992308 4322.451803659781 -999883.5363454941
 13933.196893735187 4884.8945126144426 -999890.99597402173
 12975.865715719561 5623.1759131371282 -999899.99840062868
 11670.227456691933 6594.2252861978923 -999910.15695610561
 9898.1438047397278 7870.4477648976826 -999920.03820365586
 7518.0294890431933 9533.0178695908216 -999926.29768543434
 4372.0186392381429 11651.268629083659 -999922.56369798514
 316.17495532820283 14231.825003255472 -999898.67246160214
 -4676.9955073328829 17100.708534579291 -999842.83338964824
 -10224.001239013352 19646.500061904535 -999754.71233397163
 -14907.512440187935 20495.771208483955 -999678.79313078127
 0 0 0
 -0 -0 -0
 0 -0 -0
 0 0 -0
 44411.824596563769 15564.12755289389 -998892.06011937093
 39450.917507293554 13777.269211773044 -999126.52450072567
 34045.640121234515 11430.967138428265 -999354.90561612556
 29570.573537169217 9209.3967918502567 -999520.26902480249
 26129.771820529324 7350.9371603695236 -999631.53148921404
 23555.445970326164 5892.8956866074623 -999705.16390862258
 21652.031349391218 4793.901626331316 -999754.0737829688
 20252.085339539419 3988.8207147730895 -999786.94847887743
 19223.667313064485 3412.6033930229405 -999809.38420936943
 18466.034921522372 3009.6866750630802 -999824.95835040801
 17903.565414273282 2736.574810674751 -999835.97329950181
 17480.079345276507 2561.1504744495955 -999843.93148847483
 17153.943726456033 2460.7425828130904 -999849.8322051022
 16893.885863447169 2420.0567856314046 -999854.35936719645
 16675.42913620183 2429.4739225556809 -999858.00377832807
 16477.929403214785 2483.8916068359531 -999861.14442209818
 16282.176926548309 2582.0712390766271 -999864.10257726989
 16068.347194699076 2726.3743793780786 -999867.17872984195
 15814.000633833057 2922.8513716637644 -999870.67879991967
 15491.803605688248 3181.7593773170634 -999874.9323932007
 15066.780585607223 3518.6442335361035 -999880.29846854333
 14493.003130706533 3956.0157657058671 -999887.14503163553
 13709.641746502448 4525.4150838582482 -999895.77773961076
 12636.142440192916 5269.3431342351832 -999906.27657154191
 11166.338372985641 6241.8928330839162 -999918.17248272861
 9161.6024613458321 7505.9651717320648 -999929.86030380195
 6444.7932089032056 9123.376570487746 -999937.61237411585
 2804.2059985006163 11129.940848474725 -999934.12825317017
 -1957.0409304404561 13478.254740328613 -999907.24901860347
 -7787.9439888825009 15911.638358770171 -999843.07153331104
 -13381.300482132086 17723.422182287504 -999753.38014110015
 -0 0 -0
 -0 -0 -0
 0 0 -0
 48159.351453817806 13302.4384692359 -998751.08109995071
 43515.085163702723 12567.192552810766 -998973.72489697451
 37431.272262313192 10562.798213686565 -999243.37733643339
 32033.00929952546 8525.441261493268 -999450.45058097469
 27855.910300436077 6782.8930657575265 -999588.93582461798
 24769.137825533111 5392.8830800803889 -999678.65167936042
 22524.255657214639 4330.9487199526611 -999736.91578848555
 20898.7548829962 3545.7265773833392 -999775.30969082192
 19720.5865726919 2981.395788178068 -999801.08508862066
 18862.942920684291 2587.3203427278831 -999818.73114970943
 18233.940059854642 2321.6039103388539 -999831.05252096301
 17767.382747044954 2151.6349454936985 -999839.83246187062
 17415.578958106664 2053.1973585680375 -999846.22917234665
 17143.892380709887 2009.0487535320915 -999851.014240194
 16926.588779469497 2007.4894032487196 -999854.71973611566
 16743.603424717603 2041.1726076111718 -999857.73255935835
 16578.007847428737 2106.2534508418016 -999860.3569260115
 16413.971692809842 2201.8665122159173 -999862.85725449852
 16235.028674457701 2329.8998007328078 -999865.4886587786
 16022.395497057727 2495.0514416810711 -999868.5201369425
 15753.11901480569 2705.2076406230049 -999872.2523867368
 15397.809075099927 2972.1901724464155 -999877.02921972657
 14917.737598379705 3312.8819944708666 -999883.23614201904
 14260.971957884429 3750.6258483414003 -999891.27283148258
 13357.07964227595 4316.6266086870191 -999901.47272526356
 12109.766499077672 5050.8078454691686 -999913.91774264548
 10386.893659685851 6001.1706995437216 -999928.0466065231
 8008.3582825140957 7220.0206726623001 -999941.86705983325
 4737.2363615286831 8753.9351680384625 -999950.46237837651
 297.54821820933188 10621.000182878124 -999943.55131685967
 -5491.8620906664337 12756.935352499573 -999903.54537384724
 -12160.188040892186 14833.26182710642 -999816.03516365879
 -17507.093164980244 15564.496336735689 -999725.58641994174
 -0 -0 0
 0 0 -0
 47148.161855208302 10923.030268668344 -998828.18254363677
 41739.590267151194 9718.6813493909212 -999081.25487227493
 35526.840970834484 7945.2598217684217 -999337.13851582515
 30392.156305963465 6296.3510075752965 -999518.22034371307
 26549.538966645079 4959.294322296978 -999635.19714968174
 23775.067465753011 3933.7496119452285 -999709.59372259164
 21795.220991153736 3173.7639311524995 -999757.41835930198
 20383.804257269778 2627.2640084664013 -999788.77669627336
 19372.871593686494 2246.8245817577513 -999809.80372544529
 18642.591697809454 1992.5988463408805 -999824.22621410119
 18108.73013432902 1832.6964685345049 -999834.34383730602
 17712.312398570426 1742.5602587323303 -999841.60619232093
 17411.917552236799 1703.9335952069041 -999846.94915644825
 17178.096620527005 1703.7383337579818 -999850.99403470429
 16989.304914197201 1733.0436415454117 -999854.16940585349
 16828.900035196199 1786.2265712999319 -999856.78850435431
 16682.863941036347 1860.3541401137606 -999859.1006402846
 16538.022876116265 1954.7888853681702 -999861.32668473723
 16380.538239414065 2071.0011900901195 -999863.68516966235
 16194.478349199206 2212.5921876637808 -999866.41273062502
 15960.238778688321 2385.5422234628518 -999869.78150478518
 15652.588699658985 2598.7137871865439 -999874.11365313956
 15238.031738215121 2864.6133502772122 -999879.79096444312
 14671.088901577803 3200.3788819675597 -999887.25200667197
 13888.908552129073 3628.8873173496727 -999896.95938935061
 12803.454116644774 4179.7858722526917 -999909.29636279785
 11290.482641181274 4890.1116596571346 -999924.30303982773
 9175.3806668248944 5803.888146389213 -999941.06189915154
 6219.7676918774987 6969.1622396106313 -999956.37168205355
 2126.8295484580553 8427.2696665860713 -999962.22814766283
 -3369.3052396565536 10173.191549523799 -999942.57532915298
 -10118.852576268124 12009.279447368614 -999876.68541160342
 -16291.809809503489 13212.272094868331 -999779.98219569388
 0 0 0
 -0 -0 0
 45615.986720501343 9072.6471504089459 -998917.84888908616
 39959.986354413486 7541.4060907874973 -999172.82123000582
 33917.569970280718 5928.1557731156954 -999407.0519145045
 29104.184529880898 4598.1481106785204 -999565.80747682787
 25575.374046488654 3584.1430913881245 -999666.47145969782
 23065.256552049948 2840.02297144983 -999729.92763531371
 21297.038647679274 2309.8553441252334 -999770.52402695315
 20050.697639205264 1944.5054791979508 -999797.07362175372
 19166.010126968948 1704.0248089803408 -999814.8630397846
 18530.498367146334 1556.8357887624722 -999827.08349623729
 18066.467276576735 1478.4435605794579 -999835.69498432206
 17720.555457212224 1450.2156936363829 -999841.92690081254
 17456.044693529399 1458.3098740978319 -999846.56814731751
 17247.352397584771 1492.7512760989089 -999850.13903529604
 17076.107074706521 1546.6712448612279 -999852.99638258468
 16928.305747748731 1615.7055063500607 -999855.40052560996
 16792.219654911903 1697.5533034612474 -999857.55969130073
 16656.774141537859 1791.6837378646028 -999859.66102477664
 16510.211260725333 1899.187326014126 -999861.89346910652
 16338.82373420928 2022.7705650266132 -999864.46643443825
 16125.573026139897 2166.9106964494758 -999867.62643492559
 15848.333033589473 2338.185704953351 -999871.67337997223
 15477.462729781182 2545.7996003764488 -999876.97595846409
 14972.259079432861 2802.3067825698104 -999883.98253735143
 14275.706728308216 3124.5350828180181 -999893.21503744775
 13306.736239494794 3534.6962509552363 -999905.21385432628
 11949.20865122008 4061.675756952458 -999920.35642977862
 10037.480793124487 4742.4193397753743 -999938.37732038938
 7341.425519274917 5622.8429405086063 -999957.24264020962
 3564.2095492345557 6755.3761725703807 -999970.83022609027
 -1598.625936841396 8181.4833979013192 -999965.25325859385
 -8159.6573944738175 9860.2278461314872 -999918.0945947658
 -14571.252845677907 11419.097987372805 -999828.62671142886
 -0 0 -0
 50237.343200609685 8114.1220273581794 -998704.34582606552
 45210.31565914581 7264.5892687885053 -998951.07643005007
 38577.239164765924 5669.0368925708435 -999239.54016999097
 32662.77858753386 4293.8105890521247 -999457.20572997374
 28137.76825865444 3262.2541982712828 -999598.73133921518
 24874.975676072165 2520.4234307447832 -999687.39266374882
 22579.224907716442 2001.6985992769887 -999743.05289173382
 20977.014259708201 1650.8277664268994 -999778.59531019838
 19857.046718430818 1425.1740435000361 -999801.81364836881
 19067.257239237922 1292.3148676320284 -999817.36813462852
 18501.853424234341 1227.6094627533869 -999828.072417891
 18088.507863364812 1212.3407442807509 -999835.65455188521
 17778.194299368064 1232.376009035964 -999841.19591904525
 17537.715220330632 1277.1854570536966 -999845.38671844604
 17344.376857135874 1339.1083459060821 -999848.67824100051
 17182.203793267643 1412.7921780232846 -999851.37690112134
 17039.236704829164 1494.7716836874354 -999853.70433385426
 16905.549970190343 1583.158770346615 -999855.8376028582
 16771.751791952058 1677.4348046473299 -999857.93718623125
 16627.746031879498 1778.3339053834834 -999860.16801871872
 16461.588317401001 1887.8246198985214 -999862.71669078281
 16258.221786860217 2009.1961904403609 -999865.80767370854
 15997.872767051551 2147.2714628530302 -999869.72015967849
 15653.777025791442 2308.7653428298986 -999874.80659701524
 15188.825786458256 2502.8221487037667 -999881.51070640399
 14550.53393669662 2741.7723768236669 -999890.37631451909
 13663.605505616028 3042.1861480546027 -999902.02069404151
 12419.311088945706 3426.3451550620853 -999917.00699155731
 10661.422661127546 3924.3054772082396 -999935.46486428916
 8170.6405882869221 4576.6319676341445 -999956.14657454332
 4656.8191872264333 5437.2361810941093 -999974.37492056179
 -208.53711961347651 6572.9380725184474 -999978.37626488926
 -6612.0823803095154 8041.8104453470633 -999945.80335704039
 -13952.314074547008 9732.3934301617064 -999855.29625545605
 -19813.934439353736 10625.759220228898 -999747.21867231338
 49946.297918033502 5408.9405535963051 -998737.25808461278
 44242.169394833407 4794.8889401016813 -999009.32902915915
 37449.549700618249 3777.0496069985929 -999291.38149164815
 31736.920847782312 2854.0246788916024 -999492.18225968815
 27457.113434681283 2155.2805811133967 -999620.65889388835
 24404.467104339132 1663.8393650826679 -999700.78204626811
 22273.792489762596 1335.567122847614 -999751.01621782989
 20797.41406190554 1129.933877651747 -999783.07187998039
 19771.989667326947 1015.0221170855624 -999803.99986932287
 19052.295629197786 966.61397948559897 -999818.02128621028
 18537.870975729547 966.41397386847393 -999827.69184680947
 18160.493951177919 1000.553054455073 -999834.58399528987
 17874.345248129073 1058.5032646699087 -999839.68082527595
 17648.80097489712 1132.3220242996154 -999843.60660604399
 17463.282518124633 1216.1179930523344 -999846.7656699795
 17303.610949069553 1305.6711221472228 -999849.42879967892
 17159.396219605154 1398.1542586506803 -999851.78915979725
 17022.144377385852 1491.9346254888314 -999853.99970789184
 16883.818439883358 1586.4339973732456 -999856.19961175474
 16735.675284174948 1682.0472343923032 -999858.53393861873
 16567.18235617903 1780.1158104492736 -999861.17019138159
 16364.842712116457 1882.9708875133647 -999864.3139664724
 16110.679917141179 1994.0575943529436 -999868.22618128906
 15780.096708922136 2118.1692315726045 -999873.24291980301
 15338.677318136321 2261.8225039641943 -999879.79734420602
 14737.393449399873 2433.8311289392232 -999888.43662698357
 13905.494640914276 2646.156523481086 -999899.81251845649
 12740.350830958863 2915.1540878878805 -999914.58902115631
 11093.880830116963 3263.3237995375862 -999933.13602755801
 8757.00534975749 3721.4771075842227 -999954.73170811206
 5449.4258294693827 4330.2478688273231 -999975.77606236236
 840.0214225408522 5135.8781539874053 -999986.45846811216
 -5323.8909103884444 6159.3117587571114 -999966.85898295278
 -12758.252159293106 7267.9375735152798 -999892.19623180758
 -19335.158580715211 7919.6019376382828 -999781.69194470043
 49581.323842498146 2911.5410357991223 -998765.84605943656
 43590.776012916605 2613.736436466545 -999046.05130515993
 36744.170938443836 2103.7394880889515 -999322.49058160023
 31156.671361886718 1604.5398769389781 -999513.22516584583
 27039.529598657293 1215.0419658572087 -999633.62664133322
 24132.365654883259 947.14012995209646 -999708.32338911411
 22118.271019251977 782.51549842811255 -999755.0548792507
 20731.453003409744 698.08346830263156 -999784.83662027912
 19773.368391822183 673.69383107095325 -999804.26086262648
 19103.327568437315 693.35986266095301 -999817.27436962898
 18624.491504413931 744.6976611977168 -999826.27178005048
 18271.421501473491 818.11224108648253 -999832.72893453343
 18000.470702203489 906.1371616563232 -999837.56779286079
 17782.765535365055 1002.964883848438 -999841.37107411015
 17599.205872554969 1104.1314352623876 -999844.51233500743
 17436.908818647709 1206.3000933611036 -999847.23785733117
 17286.673927276395 1307.1146003156471 -999849.71988592064
 17141.129524526583 1405.0922552590723 -999852.09275891283
 16993.339828376022 1499.5501322631055 -999854.47828715458
 16835.665672392672 1590.5531418725088 -999857.005027254
 16658.7255575872 1678.8913183636787 -999859.82426875108
 16450.255340142008 1766.0884556541637 -999863.12564811145
 16193.661140726113 1854.4612164081909 -999867.15433224256
 15865.953295817641 1947.2446860572272 -999872.23171970714
 15434.678862272434 2048.8190777716 -999878.77916715725
 14853.298758632947 2165.075779369095 -999887.33963524923
 14054.339535741736 2303.9814101001293 -999898.57846177404
 12939.5473023756 2476.3856185689838 -999913.21404903824
 11366.567685970076 2697.0368030446052 -999931.76123749733
 9133.0184561420938 2985.3943024678229 -999953.83663184114
 5963.4843759113619 3364.6170590181491 -999976.55782830436
 1519.2499243620994 3853.6455676651458 -999991.42061095021
 -4504.9616065942473 4439.567150268158 -999979.99758217239
 -11981.166429105442 5013.3542652901933 -999915.65540799929
 -18876.675353761908 5325.4465881732758 -999807.63687132602
 49345.286409925662 1007.9763329012103 -998781.2706958591
 43262.849911405116 900.38393315984558 -999063.31887739536
 36400.944075498803 715.02173261163921 -999337.01022944925
 30877.684269187725 532.11841896086685 -999523.02898140391
 26851.729659216315 397.40399401221305 -999639.3483073652
 24031.55540034403 321.49070699086764 -999711.14877686836
 22089.958811258046 298.52054047247441 -999755.94252057537
 20760.174332638227 318.18874824912166 -999784.43372438988
 19845.527914472354 370.50615910715027 -999802.98946691595
 19207.5642156338 447.0193308626728 -999815.41779001395
 18751.342171971457 540.79751482686231 -999824.03187000728
 18412.924907879755 646.14723762135463 -999830.25893902825
 18149.864396843266 758.34934103144417 -999834.99005018489
 17934.302531479596 873.48445418357619 -999838.78591381793
 17748.048364601596 988.32758436199367 -999842.00251231377
 17579.086620558624 1100.2937604382771 -999844.87050103326
 17419.068346893495 1207.4063540629472 -999847.54749302776
 17261.485398105233 1308.2800417071842 -999850.1535356103
 17100.278376185182 1402.1027085357812 -999852.79645928461
 16928.712381736157 1488.6190248489399 -999855.59092825768
 16738.335315615524 1568.1103288238262 -999858.67459399404
 16517.858634781591 1641.3822466094266 -999862.22361405462
 16251.724583263294 1709.7643486624752 -999866.47016186209
 15918.090062846502 1775.1420389485388 -999871.72341230465
 15485.819143015789 1840.035924286067 -999878.39444267785
 14909.972208792167 1907.7587483533521 -999887.02021042921
 14125.091264358662 1982.6715963577124 -999898.2702305842
 13035.501222683797 2070.5484096037894 -999912.89047454367
 11501.96597534885 2178.9593501116742 -999931.47610966431
 9325.099645585804 2317.3016459338824 -999953.83524924889
 6229.7554664905074 2495.3433958843298 -999977.48145053955
 1867.5708177910933 2717.5845186132865 -999994.5634420343
 -4100.1714720636337 2969.1161295602797 -999987.18638956
 -11606.880796805908 3193.826620841885 -999927.53726941883
 -18623.934279895766 3297.6316490971963 -999821.12134993682
 49278.578167336127 -568.83033154215957 -998784.91086212313
 43188.679168538067 -550.50301664804726 -999066.78202115488
 36338.848976359048 -504.37563697628622 -999339.39863306226
 30848.319760442038 -436.93901668444158 -999523.98182947736
 26862.765560140226 -353.89187621763108 -999639.0681576028
 24081.410414299142 -258.7944536982269 -999709.96728945768