# OOMMF OVF 2.0
#
# Segment count: 1
#
# Begin: Segment
# Begin: Header
#
# Title: Oxs_TimeDriver::Magnetization
# Desc: Oxs vector field output
# Desc:  MIF source file: /mnt/gpfs/work/plgrid/groups/plggspinsym/MF/switching-obrazki/p-ap/Anisotropy.mif
# Desc:  Iteration: 20300, State id: 142250
# Desc:  Stage: 0, Stage iteration: 20300
# Desc:  Stage simulation time: 2.98882e-09 s
# Desc:  Total simulation time: 2.98882e-09 s
# meshunit: m
# meshtype: rectangular
# xbase: 1.0000000000000001e-09
# ybase: 1.0000000000000001e-09
# zbase: 3.4999999999999998e-10
# xnodes: 35
# ynodes: 35
# znodes: 5
# xstepsize: 2.0000000000000001e-09
# ystepsize: 2.0000000000000001e-09
# zstepsize: 6.9999999999999996e-10
# xmin: 0
# ymin: 0
# zmin: 0
# xmax: 7.0000000000000005e-08
# ymax: 7.0000000000000005e-08
# zmax: 3.4999999999999999e-09
# valuedim: 3
# valuelabels: Magnetization_x Magnetization_y Magnetization_z
# valueunits: A/m A/m A/m
#
# End: Header
#
# Begin: Data Text
 -0 0 -0
 0 0 -0
 -0 -0 0
 -0 0 0
 0 0 0
 -0 0 -0
 0 0 0
 0 -0 0
 -0 0 0
 0 0 0
 0 0 0
 -0 -0 0
 0 0 0
 21627.138016143788 35432.067399894186 -999138.04626838223
 19180.759728285928 34901.521333449666 -999206.6764513019
 16905.976752630191 34299.924608051733 -999268.58407633391
 15110.264136298758 33838.701491861015 -999313.07516667468
 13519.950618196528 33567.172198765642 -999345.0134392326
 11812.970772616147 33509.154109865769 -999368.59582056443
 9675.6681672955419 33692.215644990581 -999385.41917042562
 6889.4916238214328 34107.327700415663 -999394.42919314967
 3963.1201231702585 34552.612436837953 -999395.02232734743
 0 0 0
 -0 0 -0
 -0 0 -0
 -0 0 0
 0 -0 0
 -0 0 0
 -0 -0 0
 0 0 0
 0 -0 0
 0 -0 -0
 0 -0 0
 -0 -0 0
 0 0 -0
 -0 -0 -0
 -0 -0 -0
 -0 -0 -0
 -0 0 -0
 0 0 -0
 0 0 -0
 -0 -0 0
 0 0 0
 0 0 -0
 0 0 0
 26681.40090146158 33651.359872836882 -999077.41883431852
 24627.24027916956 32251.999163998102 -999176.31456423027
 22976.459788600951 30303.356350129092 -999276.6328147077
 21114.610591638069 29715.440715960569 -999335.36202949379
 18762.98476425128 28597.714841057983 -999414.88937708247
 16728.06886420722 27767.236169053584 -999474.43804611941
 15087.49365289649 27230.809746380492 -999515.30780465284
 13616.152836214711 26944.023784602865 -999544.20610808197
 12055.743756400421 26912.147769037001 -999565.10310481396
 10166.298850185547 27194.13910611788 -999578.47374078922
 7805.5430636352521 27884.603589531191 -999580.673272616
 5268.2429814500329 28938.425712223911 -999567.31295755494
 3552.5088923281123 29203.440801433193 -999567.17569452373
 1383.3458847765278 30576.142599738872 -999531.48317493405
 -1393.8785693668196 31617.675361293986 -999499.06438539608
 -0 0 -0
 0 -0 0
 -0 0 -0
 0 -0 -0
 -0 0 0
 -0 0 0
 -0 0 -0
 -0 0 0
 -0 0 -0
 -0 0 0
 0 -0 -0
 -0 0 -0
 -0 0 0
 -0 0 0
 -0 -0 0
 0 0 -0
 0 -0 -0
 -0 -0 0
 31542.004023759942 31342.825786286776 -999010.87544325332
 28962.94379081982 29626.527370646425 -999141.33973273588
 26132.420977735026 28412.313587172401 -999254.64072500868
 23518.956998087691 26367.501548548069 -999375.61183161242
 21506.960522384605 24318.660817934429 -999472.88776890328
 19675.804760989082 22749.885351134631 -999547.55035641894
 17840.170521989996 21474.848605899693 -999610.2036259434
 16227.194166575029 20596.67567209592 -999656.16845030198
 14857.168631644059 20043.425702375953 -999688.71436380851
 13598.497655118455 19752.717730287724 -999712.41414908483
 12285.863867230128 19720.696829217908 -999730.03939343838
 10772.278865472963 19999.667493707366 -999741.95235980058
 8987.47462782812 20673.815424211869 -999745.87703857012
 7040.7060111781948 21755.21303830736 -999738.53540039284
 5117.781705980643 22988.04097624902 -999722.64067714522
 2721.8484911639353 24625.084927271946 -999693.05125779274
 -376.83838728892744 26383.515494112391 -999651.82343804173
 -3545.9455900116418 27188.678494566124 -999624.03033920273
 -6804.8934384056938 28432.627255514795 -999572.54820880352
 -0 0 -0
 -0 -0 -0
 0 0 -0
 -0 0 0
 -0 0 -0
 0 0 -0
 0 -0 -0
 -0 -0 -0
 -0 -0 0
 0 0 0
 0 0 0
 0 0 -0
 -0 0 0
 0 0 0
 -0 -0 -0
 34026.50799884634 27640.200104872456 -999038.6459449738
 30770.670131553008 26594.35517617776 -999172.61077974853
 27236.774843115534 24234.294847251062 -999335.2075502004
 24240.156699888332 22002.06731482028 -999464.01828031742
 21801.949257369521 19915.910609646449 -999563.92067399481
 19900.507088763545 18115.444240881741 -999637.8346669185
 18307.689281917697 16676.233857897314 -999693.31884207041
 16880.436453303304 15564.381156996022 -999736.36570065108
 15626.409641486316 14772.186098054031 -999768.7721866495
 14522.292466994289 14248.251533882316 -999793.02375528228
 13489.09824661661 13951.399753854806 -999811.68360516836
 12428.5095327954 13877.792590555287 -999826.45445277484
 11252.795039279548 14060.05187972776 -999837.83162318054
 9910.6378660392202 14547.580586736982 -999845.06157512241
 8398.6412497217007 15361.330845832648 -999846.73442473344
 6681.2008375208397 16465.840835054973 -999842.10635528015
 4523.8089143423504 17934.604117785726 -999828.92793119617
 1746.3685262580145 19748.66124663447 -999803.45097220794
 -1638.8713330637011 21698.501836609983 -999763.21652619343
 -5652.1611784694833 23827.89745979548 -999700.0972174895
 -9126.3748695484355 24692.310226760605 -999653.43949661159
 -0 -0 -0
 0 -0 0
 -0 0 -0
 -0 -0 -0
 0 -0 -0
 0 -0 -0
 0 0 -0
 0 -0 -0
 -0 0 -0
 0 0 -0
 -0 0 0
 -0 0 0
 -0 0 -0
 35561.979946234838 25321.913328471717 -999046.61867586977
 32411.91745410061 23643.467600039836 -999194.90293275332
 28458.434697901248 21086.241511961704 -999372.54710815649
 24990.817248647978 18569.438581773018 -999515.19998647459
 22262.890835623701 16433.484824446998 -999617.0788197678
 20150.420534706827 14646.310654536646 -999689.67491741397
 18507.24286328879 13177.626432471323 -999741.88274934527
 17171.467124949442 12000.89552752047 -999780.53552933014
 16030.001891384722 11081.725647220035 -999810.09916685789
 15033.514165764462 10393.3869382457 -999832.97153063503
 14141.487908491687 9903.3710366059622 -999850.95967441355
 13300.187482337562 9588.9525622966121 -999865.56946506188
 12448.913836196916 9448.9455812920205 -999877.86352719157
 11530.922773223403 9503.4110210945273 -999888.35526720795
 10500.262455780727 9783.6202247805868 -999897.00732808327
 9314.8627321437943 10316.86113814913 -999903.39318783046
 7900.2286826173522 11126.415700544914 -999906.89029550191
 6109.9637148841302 12269.529533335277 -999906.05908176862
 3784.0443079537299 13798.2076141751 -999897.63999887079
 784.78170492465017 15741.276738335097 -999875.7904481549
 -2975.8377577169886 18141.631286750515 -999830.9985211977
 -7094.0739326058592 20585.795650605509 -999762.92146311875
 -10242.570058447674 21963.60209450527 -999706.30184151186
 0 -0 -0
 -0 0 -0
 0 0 0
 0 0 -0
 0 -0 0
 -0 0 0
 -0 0 0
 0 -0 0
 -0 -0 -0
 -0 -0 -0
 0 0 0
 36850.622603700198 23919.35521021235 -999034.48191743973
 33698.631044494134 21850.65841060524 -999193.149992908
 29641.701871019028 18922.957641285291 -999381.45429275197
 25895.635281578685 16197.325368957814 -999533.42251485272
 22865.322134487214 13936.291672642434 -999641.41411713301
 20532.840083751034 12124.738674207536 -999715.65616938157
 18746.225292469448 10666.466740404283 -999767.37570524879
 17355.354611867562 9484.9837032459636 -999804.39424441697
 16233.396827869683 8527.6100649782475 -999831.86421218293
 15289.933212021637 7756.3725103768538 -999853.01751200028
 14469.529797305117 7144.4742311294976 -999869.7861198755
 13731.448395062831 6671.0596178965598 -999883.46535411209
 13036.382977874906 6324.7015921730908 -999895.01992390386
 12344.120538052968 6107.3454662614595 -999905.15701215272
 11614.956752889957 6034.0601964559819 -999914.3377795791
 10809.062238704286 6129.1014605596738 -999922.79616418679
 9879.1214984045782 6421.7955546366866 -999930.57934052311
 8754.250580429909 6949.2635091471566 -999937.5334656937
 7326.8159860047444 7767.5939023796127 -999942.98950113892
 5463.3879853783892 8947.8104164192737 -999945.0425300746
 3018.1329401214675 10574.690465681542 -999939.53156934003
 -133.27556830324744 12736.226991838457 -999918.88208976004
 -3946.6363454226826 15379.917763332651 -999873.93314914952
 -7979.5653764378076 18103.411946486623 -999804.27735247219
 -11044.222775373462 19704.291121216924 -999744.85047670943
 0 -0 0
 0 0 0
 0 -0 -0
 0 -0 0
 0 -0 -0
 -0 -0 0
 0 -0 -0
 0 -0 0
 0 0 -0
 38396.651367641192 22823.028281295265 -999001.90517527191
 35047.653038850716 20642.555054290413 -999172.43103345239
 30813.894982192334 17537.332263917015 -999371.27527915826
 26874.181299551812 14628.688515172815 -999531.7803110641
 23613.18002173509 12242.73275482918 -999646.20402618195
 21057.391848621726 10363.494192161195 -999724.55418313225
 19095.60710321716 8886.6798124555426 -999778.16775086208
 17584.492315678417 7705.2116920742228 -999815.69068642845
 16397.198437283678 6739.2721504606452 -999842.84469825064
 15434.309370342591 5935.2268805631666 -999863.2682402815
 14624.740438469522 5258.0662510563061 -999879.22756021225
 13920.829771884837 4685.7234334418672 -999892.12142829061
 13288.312144375253 4205.1770730005237 -999902.86390535894
 12698.144210691959 3812.1082260370858 -999912.10861979134
 12122.429972320255 3511.5689168060239 -999920.35461596074
 11532.328846471575 3317.6348136783226 -999927.99675307632
 10895.220654281762 3252.0608445601529 -999935.35704422311
 10169.157399458383 3343.5760251348352 -999942.70272708591
 9294.6443515986448 3630.0543348554793 -999950.21490667399
 8187.8845190757938 4163.3206735233334 -999957.81176411209
 6740.7728676938959 5011.3153607334898 -999964.72372754302
 4824.9259494461803 6259.2388349715984 -999968.7705217544
 2306.9682572676152 8000.8785128143236 -999965.33131928265
 -903.47418951317377 10289.861128205268 -999946.64982305479
 -4764.3408160277268 13044.538924776132 -999903.56588064483
 -8892.4774110758717 15815.732011708327 -999835.37968328933
 -12147.189599938534 17375.006026661471 -999775.25221941574
 0 -0 0
 0 -0 0
 0 0 -0
 0 0 -0
 0 0 -0
 0 -0 0
 -0 0 -0
 40755.130400854832 21498.830859511076 -998937.84572298755
 36912.578171733127 19514.380538781174 -999127.94502250967
 32281.255307451858 16469.527897731208 -999343.12185885431
 28033.001441856017 13529.002893818086 -999515.44105674536
 24517.177560588007 11077.309960072756 -999638.0350949592
 21735.984034215209 9142.1808751522221 -999721.94510619307
 19580.0874983992 7632.8726913904911 -999779.15532783128
 17914.441494948191 6439.6059802608279 -999818.78571106226
 16613.161661552862 5468.4751883964891 -999847.03762061568
 15573.793411229071 4650.9261251958415 -999867.90419783082
 14719.274153759741 3941.1793931395359 -999883.89829688601
 13995.067707262424 3310.6369111108042 -999896.58353407343
 13364.034839455631 2743.1194293118642 -999906.93460371927
 12800.021911074662 2231.6526604855135 -999915.58601987944
 12282.229694073203 1777.0444746852797 -999922.99150818447
 11791.236847563878 1387.3583565838651 -999929.51850137685
 11306.00706895027 1077.4118072998488 -999935.5046141498
 10800.720619659311 868.25083257931351 -999941.29356407106
 10240.600350748369 787.20253601829791 -999947.25381723186
 9576.8175541139881 869.25103069895636 -999953.76341517945
 8741.8163758954379 1159.5448487301371 -999961.1172951645
 7646.5391757353627 1715.6006754307732 -999969.29310502135
 6179.4956213410978 2608.3601597353822 -999977.50489255658
 4209.906917009891 3917.9787016682531 -999983.4629265843
 1600.5722971255839 5715.390546126624 -999982.38608448836
 -1761.6841909462835 8021.5809249267049 -999966.27478544298
 -5881.2230353978275 10709.974546594503 -999925.35104417615
 -10418.308190759677 13285.78303380943 -999857.46325344848
 -14229.571641493014 14500.714168736791 -999793.60298988514
 0 0 0
 0 0 0
 -0 0 0
 0 -0 0
 -0 0 -0
 44395.861312766589 19161.984097422617 -998830.22874948464
 39820.64063216059 17977.136387692957 -999045.1136695192
 34450.228331673541 15344.14360932027 -999288.61647913919
 29636.339595431637 12574.410123562389 -999481.6514501049
 25711.39349680646 10173.965064277876 -999617.63423787372
 22626.830227451752 8239.9255192713899 -999710.02304733102
 20234.756484949776 6719.4321292270852 -999772.67609284841
 18380.692457882556 5518.0069015584832 -999815.8339137279
 16930.017381439622 4543.2697278622718 -999846.35480239848
 15774.350765058138 3720.3625267887378 -999868.65575464966
 14831.468573409946 2995.1019081546742 -999885.52189964009
 14042.113335467786 2331.6528103371857 -999898.68609186879
 13365.564580791399 1708.6648896290374 -999909.21695308515
 12774.774950687775 1115.7943252484681 -999917.77668365452
 12251.475443413141 551.15646188836422 -999924.79596018314
 11781.827584480716 19.779968805778132 -999930.59166500263
 11352.878375176126 -467.31193269133308 -999935.44480239134
 10949.546273138647 -893.73778480165299 -999939.65251368249
 10551.639879561573 -1238.1941665222391 -999943.56329297822
 10130.519126566847 -1474.4624912487168 -999947.597898304
 9645.3568262033223 -1570.756608731934 -999952.24876759562
 9039.3245753605952 -1488.4694588970708 -999958.03665448434
 8236.005598671607 -1180.8482118313768 -999965.38630558574
 7135.9347470165058 -592.32170344113331 -999974.36346652696
 5613.6257094344437 339.63380222077694 -999984.18580259301
 3516.5733964203419 1676.6776858522298 -999992.41120294773
 670.51057742105115 3460.6660385135042 -999993.78708376747
 -3091.9129909653871 5668.6956682377786 -999979.15276443504
 -7828.5474394179273 8107.6723791204295 -999936.48772988655
 -13183.110432865466 10180.44688442822 -999861.27242760453
 -17722.76508051384 10561.529076477926 -999787.15619949193
 0 0 0
 -0 -0 -0
 0 -0 -0
 0 0 -0
 42823.08627261626 15927.679252203348 -998955.70087753481
 37549.692536736919 13986.240129894697 -999196.8803381169
 31998.164093988085 11566.525407741585 -999420.99887114973
 27424.720594453545 9334.2628928843114 -999580.2900400561
 23868.245833046301 7475.7402524762274 -999687.16114018916
 21138.052792004237 5987.2210444930988 -999758.63882655534
 19033.846295529671 4800.4490266189187 -999807.31562853686
 17390.721692787232 3834.4519373314961 -999841.41731443815
 16082.455257505606 3016.4181188551943 -999866.11896524555
 15016.012836927242 2288.87228646012 -999884.63355636061
 14125.22098446927 1610.6597139323376 -999898.9368468324
 13364.952307792257 955.18769516631858 -999910.22880370473
 12705.933847379514 307.85009522966703 -999919.22897471325
 12130.086460148072 -336.40798694819483 -999926.3712054682
 11626.324913094033 -975.01712722547006 -999931.93663899775
 11186.867696859643 -1599.1824475369399 -999936.14626466646
 10804.048906757385 -2194.8819832418149 -999939.22566339001
 10467.478654027713 -2743.6368103483783 -999941.45045981579
 10161.307151472511 -3223.0786175524404 -999943.17818623979
 9861.378111389793 -3607.2548044477967 -999944.86894754355
 9532.1522083911532 -3866.5580940952241 -999947.09250178875
 9123.3512817320043 -3967.3082355738338 -999950.51123880805
 8566.1793875983531 -3871.16517809471 -999955.81634933432
 7768.762121229297 -3534.7762586726017 -999963.57518256886
 6610.4546071842906 -2910.4757644698216 -999973.9151701465
 4935.1683138482085 -1949.5329241418074 -999985.92161844554
 2546.0138634234836 -610.60813073916745 -999996.57247968495
 -788.02311333104797 1120.2154959202419 -999999.06206796784
 -5274.3760383134004 3183.9817387169323 -999981.02142875374
 -10842.330631144383 5348.3189306412323 -999926.91700498853
 -16117.78483380647 7002.4530112771545 -999845.57940907858
 -0 0 -0
 -0 -0 -0
 0 0 -0
 47173.49171962573 13500.41164883182 -998795.47484171682
 41874.32651620164 12603.278748115406 -999043.39152191556
 35472.878129657925 10532.760538716568 -999315.13341519679
 29953.099545705965 8486.3892160710584 -999515.27903563261
 25669.275878012628 6740.7986367145686 -999647.76291933819
 22425.341455854032 5320.663265219825 -999734.36201973516
 19959.715508479232 4176.8311790818598 -999792.06029960164
 18054.154044751471 3240.2573153425451 -999831.75997477642
 16546.058750871423 2443.5252668621852 -999860.11877866345
 15319.642233731402 1729.5625947181923 -999881.15152505098
 14294.917821989431 1054.4391858713377 -999897.26646414329
 13418.581695021114 387.33455660331839 -999909.89175886987
 12656.9489301092 -290.7635101422718 -999919.85533859744
 11990.391422508254 -988.77766731690974 -999927.62379697256
 11408.772222903028 -1707.202453969594 -999933.46047431941
 10907.556905525098 -2439.5429466114988 -999937.53496534214
 10484.42990081574 -3173.4942236406032 -999940.0010320954
 10136.30979853684 -3891.9405977461206 -999941.05227360851
 9856.6433114752326 -4573.8259146017444 -999940.96160680079
 9632.8425509747176 -5194.9273598200052 -999940.1087435761
 9443.7238333748901 -5728.4750615644352 -999938.99846622045
 9256.8074063010281 -6145.5668779664948 -999938.26985689031
 9025.2912794912882 -6415.3291432745027 -999938.69195531355
 8684.3850260347226 -6504.8699115052623 -999941.13232937572
 8146.4989081989206 -6379.140152001155 -999946.46913045307
 7294.6829019342576 -6001.0089197571033 -999955.38675148156
 5973.9847082915303 -5332.1034042854399 -999967.93957606039
 3981.9986551571546 -4335.5505423572686 -999982.67319399351
 1065.9159586090857 -2983.3621256450597 -999994.98167420656
 -3046.4906248686657 -1275.9532322936318 -999994.54540423444
 -8488.5077309537392 699.01455998844676 -999963.72764973145
 -14697.137587203339 2536.6660763694981 -999888.77355031832
 -19505.345388458107 2701.7291657521378 -999806.10228223342
 -0 -0 0
 0 0 -0
 45811.569262470322 10782.062197399659 -998891.90969618002
 39940.415318823398 9451.572456498965 -999157.36048044974
 33520.009711495841 7645.5829075513884 -999408.80224808154
 28269.894526719549 6005.3858759672366 -999582.28695987258
 24281.135226522889 4658.1581492813939 -999694.31729642616
 21286.332063683334 3572.4415309608648 -999767.03772868123
 19007.536367987428 2683.7680588550079 -999815.7384989626
 17228.136194844279 1927.0348154602125 -999849.72763914464
 15793.871768427622 1245.5423042113996 -999874.49324349256
 14599.713555977316 593.66086108996353 -999893.24226682598
 13576.885719864049 -62.754252904031055 -999907.82787017606
 12682.73271040667 -746.91096992411212 -999919.29195060499
 11893.178312808323 -1472.0689642652603 -999928.19008295995
 11197.007747060059 -2242.6626554586564 -999934.79661512235
 10591.328788461364 -3055.4188579064216 -999939.24223929585
 10077.778908213793 -3900.3978803308569 -999941.61092968425
 9659.2314453316812 -4761.9824651648178 -999942.00970400614
 9336.8566205398874 -5619.8363436745758 -999940.61851087818
 9107.4465078800749 -6449.8777170309504 -999937.72480867093
 8960.9205747397609 -7225.2482485462006 -999933.74665034679
 8877.9194314987599 -7917.2461921050235 -999929.24737668363
 8827.3497976249728 -8496.1364656969654 -999924.94396364898
 8763.6578570316997 -8931.7730719522096 -999921.70780054387
 8623.4614764991638 -9193.9598746341198 -999920.55035087012
 8320.993477675298 -9252.5288546832144 -999922.5728911903
 7741.6902404829407 -9077.1421827236409 -999928.83332866
 6733.45694124905 -8636.9421787870888 -999940.03009551566
 5096.3942108395231 -7900.4675460532526 -999955.80371264485
 2576.2853442101059 -6837.4852021527477 -999973.3054186675
 -1118.5820728118379 -5429.0132112247029 -999984.63717684103
 -6214.0185690354865 -3708.8392200329299 -999973.81489960186
 -12486.700977495444 -1905.4717853428781 -999920.2225557667
 -18060.174307510588 -709.71612813073637 -999836.64986186614
 0 0 0
 -0 -0 0
 44092.794317981126 8399.8905533904526 -998992.12575871858
 38082.43562072052 6865.3641597788483 -999251.01694826782
 31876.354202485752 5288.1898444429889 -999477.83021482104
 26920.595765043443 3982.9485698073549 -999629.64023899648
 23183.166707370896 2946.8007070578296 -999726.89127931884
 20372.9624332612 2112.4875166917859 -999790.21789482655
 18215.57689534649 1409.9793733543033 -999833.08842853189
 16503.859880265503 779.25768665219243 -999863.49836690701
 15093.957632200651 171.83062545976478 -999886.06496802112
 13891.064535204032 -449.83485750804596 -999903.41332284687
 12836.137419590295 -1113.0934049499767 -999916.99385459838
 11895.629178134941 -1835.8630816357852 -999927.55918276485
 11053.871383770314 -2627.3195053702811 -999935.45247663243
 10307.319476601891 -3488.580502073673 -999940.79273289361
 9659.9856145845442 -4413.3896087425655 -999943.60174466216
 9119.607828878512 -5388.8461525755283 -999943.89497120853
 8694.2854454680091 -6396.2082969633657 -999941.74726331665
 8389.4465798023029 -7411.8208196830701 -999937.33908591548
 8205.0829948387182 -8408.1689316668962 -999930.98727275408
 8133.2185428995108 -9355.050878133492 -999923.16393771046
 8155.5581230995513 -10220.794349716884 -999914.50746279361
 8241.2056768671428 -10973.433620942806 -999905.82870766299
 8344.2289764801317 -11581.721297086233 -999898.11359687301
 8400.6967004725757 -12015.866932916919 -999892.51784219162
 8324.6421868081743 -12247.877460114003 -999890.33890231373
 8002.3021188395905 -12251.401486134591 -999892.92742894427
 7284.1476469192867 -12000.982845676766 -999901.45394623547
 5975.2490132997345 -11470.768921107423 -999916.35543158697
 3828.0051452551379 -10633.269428113112 -999936.13793975709
 551.97620073310929 -9460.8765891653129 -999955.09255988023
 -4110.5536146413524 -7939.8067523826148 -999960.03061008174
 -10073.326699137084 -6129.613055948751 -999930.47554967389
 -15733.367500858974 -4410.2801535966228 -999866.49637641595
 -0 0 -0
 49758.612654716308 7062.1293932282451 -998736.3049349467
 43861.714728299201 6152.194045751191 -999018.66873923666
 36757.930769033046 4596.2584831412478 -999313.62891413388
 30612.330347712563 3283.1559665051741 -999525.94069267763
 25871.921469918645 2274.0813958801909 -999662.67922397668
 22316.826330774249 1490.0999829415498 -999749.83814180375
 19628.16137233148 849.25554050084691 -999806.98839634459
 17536.307572156085 283.91259391419385 -999846.1868259405
 15844.166377706186 -259.42709056378345 -999874.43966199097
 14417.778020195783 -822.44916217453999 -999895.72019002843
 13171.407298932705 -1436.8354419274613 -999912.22091425513
 12054.440043645827 -2125.3590021705195 -999925.08385595877
 11041.31553427323 -2902.4904241683384 -999934.83032676182
 10124.009755017467 -3774.763268000007 -999941.62609061901
 9306.2827796841557 -4741.0505831260998 -999945.45628258807
 8599.0378072666444 -5792.8831318694447 -999946.2480822705
 8016.3440003761398 -6914.8861360611018 -999943.95971904008
 7571.8729266442733 -8085.4205581590631 -999938.64447514026
 7275.6365686988065 -9277.4639014611002 -999930.49447252951
 7131.0096169892176 -10459.75529659335 -999919.86789991218
 7132.0510093222101 -11598.157596670748 -999907.30399810721
 7261.1227606928705 -12657.163692593049 -999893.53048387764
 7486.7262683423851 -13601.411153896799 -999879.46800822241
 7761.3500637044399 -14397.067405516713 -999866.23400098365
 8018.9573318168332 -15012.923838892875 -999855.14372888952
 8171.5732958827884 -15421.065515687214 -999847.69646593241
 8104.3353208871667 -15596.981068253339 -999845.51503247884
 7668.5225737936753 -15519.016431719492 -999850.16572010785
 6672.9506602466636 -15167.141382683118 -999862.70535097143
 4876.9292269365287 -14521.338696829303 -999882.66625828017
 1996.127741408794 -13561.165671017117 -999906.05071660772
 -2244.0611009842273 -12273.127785115426 -999922.16423286917
 -7907.4002379992371 -10696.942049591335 -999911.52031180414
 -14254.849771814592 -9167.5884011095386 -999856.3669752226
 -18956.761521366352 -9229.691943517766 -999777.70228148694
 49150.398109452843 4136.0536472804124 -998782.82495541021
 42797.855113016587 3417.8344007764813 -999077.90587407839
 35612.687982576157 2382.4537901219283 -999362.82718970173
 29635.454506640039 1477.6823877007043 -999559.68120515242
 25067.701559404817 768.29124680509005 -999685.46056601673
 21633.93959560549 203.08257022450846 -999765.93831508537
 19011.09955402117 -282.27631954110569 -999819.23286853533
 16937.204037287371 -743.55975101916329 -999856.27879125497
 15224.289698845405 -1225.7662915036237 -999883.35244675609
 13746.79405721389 -1764.4086465147625 -999903.95164499525
 12426.601347672438 -2386.7895310073091 -999919.93820239452
 11220.308979391062 -3112.6854607852188 -999932.20562977635
 10109.469186290256 -3954.5597901760148 -999941.07830893586
 9093.2234288900108 -4917.5047491036921 -999946.56428966997
 8182.555128537213 -5999.1146559108183 -999948.52688271611
 7395.5192364396316 -7189.4321805759346 -999946.80776536523
 6753.0266063591826 -8471.1086590120449 -999941.31675300875
 6274.9552188900543 -9819.8682783289951 -999932.09525647166
 5976.524478826731 -11205.353777328686 -999919.35734932066
 5864.9710511452404 -12592.356112205345 -999903.51268615562
 5936.6116484609829 -13942.388394046156 -999885.17663179943
 6174.349643143054 -15215.479008382252 -999865.1742135185
 6545.5877131855714 -16372.028714728978 -999844.54389532621
 7000.3528850623788 -17374.536914056338 -999824.54487100209
 7469.2524874057208 -18189.029987784037 -999806.66603868117
 7860.6995123987263 -18786.046270551895 -999792.62543224229
 8056.7447884283101 -19141.100717384285 -999784.33030666236
 7906.9813615966996 -19234.61423465277 -999783.73124440853
 7220.7079886284382 -19051.461462677787 -999792.43005349836
 5759.8067597607005 -18580.738870487421 -999810.77248103148
 3241.1034215658419 -17817.823399149256 -999835.99676043249
 -626.08266362321501 -16775.364936282622 -999859.08764773107
 -5997.0224550278062 -15522.986221887066 -999861.52672279021
 -12460.826097942152 -14296.761841455211 -999820.14903371769
 -17905.089553846123 -13609.396397357139 -999747.06406058965
 48500.080254518398 1311.8513507522828 -998822.3171622362
 41969.127798579058 930.62546073693886 -999118.47458050668
 34801.52464758946 372.95199692056661 -999394.17388186289
 28939.620838536757 -152.62933840066614 -999581.14980726142
 24475.373183688167 -592.08674476959311 -999700.25784772402
 21102.09694956227 -968.73154510995312 -999776.8566352817
 18495.008038161799 -1325.5275511407528 -999828.07404792344
 16397.913055540419 -1704.6018949893521 -999864.09215443023
 14629.608779375854 -2142.2916782398715 -999890.6865919535
 13070.871129461968 -2668.6488554975363 -999911.01136111247
 11649.580006181024 -3307.6690366467724 -999926.67061701266
 10328.362671520817 -4077.2941309020457 -999938.3483980879
 9095.1428867964205 -4989.0778864447748 -999946.19229122112
 7955.9300954120081 -6047.6534589566663 -999950.06328514079
 6929.0527518369163 -7250.1609123139106 -999949.71043283341
 6040.2050281049997 -8585.8157540736411 -999944.89832743036
 5317.8939165904048 -10035.765543161353 -999935.49962697818
 4789.097201008607 -11573.380514889655 -999921.55762912566
 4475.1225543729561 -13165.057323285073 -999903.32259863918
 4387.7911281179659 -14771.5640301033 -999881.267043803
 4526.1201045364851 -16349.846100157712 -999856.08802932256
 4873.6431877166278 -17855.142158440492 -999828.70607948687
 5396.3778297969757 -19243.179077861951 -999800.26963653869
 6041.2487408940169 -20472.214405855226 -999772.1699222133
 6734.5473309203635 -21504.716525433058 -999746.06427802891
 7379.8004152657659 -22308.564710368308 -999723.89512624638
 7854.3095757791871 -22857.74246854107 -999707.87404637865
 8003.7210583166952 -23132.62897500904 -999700.36607271747
 7634.577507854061 -23120.165285895946 -999703.54164793761
 6506.6296351012907 -22814.584477404736 -999718.53964299115
 4331.8126799965758 -22220.390131646265 -999743.71198887925
 801.19783221966679 -21361.447950207039 -999771.49720498826
 -4296.0743816701051 -20302.906245869799 -999784.64468248305
 -10660.997405930559 -19189.107729187122 -999759.03160655103
 -16199.936264166641 -18281.892482566029 -999701.62272164633
 48053.25055727009 -1001.9322957809861 -998844.27276856068
 41469.258297990695 -1170.1283354524537 -999139.09512934845
 34313.469895435039 -1404.6010234919379 -999410.13246799714
 28498.701874487531 -1635.9946515669301 -999592.49072457966
 24069.556976008236 -1849.4129619490898 -999708.57558524271
 20700.529881828938 -2064.0872368156829 -999783.59038668475
 18064.423892012775 -2310.6287490477862 -999834.15503984166
 15907.941419109831 -2620.437899316511 -999870.0269060086
 14053.841591065668 -3022.3533329094989 -999896.67212010652
 12386.963491381512 -3541.7662098924493 -999917.00606979267
 10839.469589317985 -4200.1559512622171 -999932.43001165206
 9378.8300332231502 -5014.4338448963608 -999943.44490097172
 7998.6586883393793 -5996.0397582156447 -999950.03323486412
 6711.6380915559448 -7149.8850563944179 -999951.9153728385
 5543.7091960574708 -8473.3114518674392 -999948.73382658453
 4528.8723363133158 -9955.2387969766914 -999940.1894792791
 3704.1946217636992 -11575.704623335154 -999926.13827456161
 3104.8642310398327 -13305.962366725209 -999906.65123480512
 2759.3609629913121 -15109.269263798662 -999882.04099753173
 2684.9755364843249 -16942.380566786465 -999852.8624988274
 2883.9818567809443 -18757.656172255967 -999819.90027383098
 3340.709571583719 -20505.546226214989 -999784.15782283875
 4019.5835684605836 -22137.152218092881 -999746.86268055323
 4863.9255923983665 -23606.538134415132 -999709.49459587503
 5795.0170343655309 -24872.549477799708 -999673.83383784012
 6710.6789749751842 -25900.02142234741 -999642.01376193517
 7482.5084433615948 -26660.422312228293 -999616.54345530365
 7951.0201747088495 -27132.112605741891 -999600.23496582406
 7918.5014785369594 -27300.532220975907 -999595.90749201551
 7141.0503073662085 -27158.788559453085 -999605.62503643939
 5326.0086451139141 -26709.481650462374 -999629.0498089157
 2155.1146855541115 -25969.37260329142 -999660.41592496971
 -2601.8275705101446 -24979.967090296781 -999684.56611946388
 -8673.7519091074446 -23831.858149332693 -999678.35255394503
 -13999.852116037482 -22751.55960225232 -999643.12165712134
 47845.003025596379 -3035.8851162128431 -998850.1584757556
 41258.864898525804 -3058.1646549148159 -999143.8103177282
 34104.949294051723 -3049.4292242780157 -999413.60477784986