# OOMMF OVF 2.0
#
# Segment count: 1
#
# Begin: Segment
# Begin: Header
#
# Title: Oxs_TimeDriver::Magnetization
# Desc: Oxs vector field output
# Desc:  MIF source file: /mnt/gpfs/work/plgrid/groups/plggspinsym/MF/switching-obrazki/p-ap/Anisotropy.mif
# Desc:  Iteration: 52400, State id: 366950
# Desc:  Stage: 0, Stage iteration: 52400
# Desc:  Stage simulation time: 7.71318e-09 s
# Desc:  Total simulation time: 7.71318e-09 s
# meshunit: m
# meshtype: rectangular
# xbase: 1.0000000000000001e-09
# ybase: 1.0000000000000001e-09
# zbase: 3.4999999999999998e-10
# xnodes: 35
# ynodes: 35
# znodes: 5
# xstepsize: 2.0000000000000001e-09
# ystepsize: 2.0000000000000001e-09
# zstepsize: 6.9999999999999996e-10
# xmin: 0
# ymin: 0
# zmin: 0
# xmax: 7.0000000000000005e-08
# ymax: 7.0000000000000005e-08
# zmax: 3.4999999999999999e-09
# valuedim: 3
# valuelabels: Magnetization_x Magnetization_y Magnetization_z
# valueunits: A/m A/m A/m
#
# End: Header
#
# Begin: Data Text
 -0 0 -0
 0 0 -0
 -0 -0 0
 -0 0 0
 0 0 0
 -0 0 -0
 0 0 0
 0 -0 0
 -0 0 0
 0 0 0
 0 0 0
 -0 -0 0
 0 0 0
 19910.476580075509 32270.487952231309 -999280.83566617034
 17456.837113084668 31631.496982280954 -999347.14050557395
 15203.765966393583 30959.841587670748 -999404.98983610515
 13453.124887832329 30485.334824927319 -999444.67470258928
 11931.149900051596 30252.054638272617 -999471.0905535114
 10316.3223999272 30273.489331092493 -999488.41380771459
 8293.5248363357041 30564.69601181697 -999498.38259173487
 5637.8207704510551 31101.059030283424 -999500.34472438006
 2835.6229616665464 31654.538710344113 -999494.84712101182
 0 0 0
 -0 0 -0
 -0 0 -0
 -0 0 0
 0 -0 0
 -0 0 0
 -0 -0 0
 0 0 0
 0 -0 0
 0 -0 -0
 0 -0 0
 -0 -0 0
 0 0 -0
 -0 -0 -0
 -0 -0 -0
 -0 -0 -0
 -0 0 -0
 0 0 -0
 0 0 -0
 -0 -0 0
 0 0 0
 0 0 -0
 0 0 0
 25100.445323117099 30372.019981613594 -999223.45251040708
 22944.70699198181 28805.241137428548 -999321.66918568639
 21188.533696957638 26751.841345435201 -999417.52287239884
 19308.562517929193 26196.027364908688 -999470.33350859804
 16993.17631134421 25052.124685241033 -999541.70648733154
 15021.674950752693 24211.391903928474 -999593.99647244194
 13459.643864886932 23705.65487355155 -999628.37090293039
 12083.132049339871 23494.336544235379 -999650.94611580519
 10636.11317314121 23577.95824782427 -999665.42051900155
 8879.851298041749 24007.976150165894 -999672.32897689904
 6673.7124782912033 24872.763873732289 -999668.34859319148
 4320.5626320793435 26130.15497749174 -999649.21234370745
 2865.1731104977716 26669.025686685352 -999640.21220235503
 899.0465126759857 28249.564107717859 -999600.49712027074
 -1736.0274927881494 29417.604412721841 -999565.70107180101
 -0 0 -0
 0 -0 0
 -0 0 -0
 0 -0 -0
 -0 0 0
 -0 0 0
 -0 0 -0
 -0 0 0
 -0 0 -0
 -0 0 0
 0 -0 -0
 -0 0 -0
 -0 0 0
 -0 0 0
 -0 -0 0
 0 0 -0
 0 -0 -0
 -0 -0 0
 30016.323265216022 28041.208495646471 -999155.9993132914
 27300.846491847118 26138.479046939134 -999285.46656795777
 24402.402610143006 24824.160111370638 -999393.95826751809
 21737.273342028951 22660.390545203292 -999506.87723896757
 19685.535406280036 20552.515568166789 -999594.95486901526
 17864.99581050807 19004.755170452157 -999659.7727255018
 16095.184946950729 17767.179387901455 -999712.59487820871
 14580.053903044063 16942.96507435395 -999750.1477682679
 13324.8890077878 16473.045470461628 -999775.5178568128
 12194.65904321927 16301.656683406427 -999792.75166416157
 11024.37013342799 16424.629824965803 -999804.32825542113
 9668.0557797035744 16890.303198945272 -999810.60524245701
 8056.9126971239621 17778.055674650026 -999809.49530108983
 6301.6068464350901 19096.364863090461 -999797.78885541088
 4585.0131973870539 20586.698415787068 -999777.55801093951
 2373.1034521227093 22468.157142413402 -999744.74256913655
 -554.88970217156714 24467.901356391518 -999700.46208883601
 -3493.8386804765905 25590.029281157236 -999666.41610722523
 -6589.9067606701619 26972.549543927587 -999614.45302675874
 -0 0 -0
 -0 -0 -0
 0 0 -0
 -0 0 0
 -0 0 -0
 0 0 -0
 0 -0 -0
 -0 -0 -0
 -0 -0 0
 0 0 0
 0 0 0
 0 0 -0
 -0 0 0
 0 0 0
 -0 -0 -0
 32307.36264458163 24263.761088029885 -999183.4187059023
 29023.454893681177 23066.017841740369 -999312.56265843019
 25428.682824151281 20539.402640842902 -999465.6147306849
 22399.633560282826 18207.153002477669 -999583.29117483215
 19961.679315157799 16059.561875911233 -999671.75704391731
 18085.120172733798 14246.862570975776 -999734.94253988215
 16552.565115220743 12851.135435775934 -999780.40634237148
 15225.864078982111 11818.215802588458 -999814.23416467302
 14102.515147141503 11132.297736807914 -999838.58247900382
 13147.891153848272 10743.982234704834 -999855.83951085003
 12276.827313971855 10614.7442228124 -999868.29468494875
 11388.289141370245 10740.195392341944 -999877.4700298867
 10393.203620099992 11149.326302107938 -999883.83017304575
 9238.827467934605 11885.879027293251 -999886.67855250789
 7918.0845917505694 12964.167622725949 -999884.61048975424
 6386.6494595504373 14342.085602705485 -999876.75004934741
 4396.8711668574106 16084.194228133192 -999860.97344579548
 1772.7046670829429 18173.439056266234 -999833.27791738918
 -1459.9115642455079 20401.701757937168 -999790.79772900743
 -5350.1860619186291 22759.282887020458 -999726.65791783878
 -8708.0661130541594 23880.085079370234 -999676.9033648686
 -0 -0 -0
 0 -0 0
 -0 0 -0
 -0 -0 -0
 0 -0 -0
 0 -0 -0
 0 0 -0
 0 -0 -0
 -0 0 -0
 0 0 -0
 -0 0 0
 -0 0 0
 -0 0 -0
 33637.430343095657 21927.529517660867 -999193.52816617361
 30471.017456723759 20099.478953125123 -999333.54193730769
 26510.794269159178 17391.050218709712 -999497.23819503805
 23052.368094582362 14754.710403524727 -999625.37325046957
 20354.891042032606 12549.929075959468 -999714.04796114354
 18299.224089707041 10741.629850247435 -999774.85254724976
 16739.335383158101 9300.7972225572485 -999816.62809835025
 15516.428653505629 8201.6697614499972 -999845.97466558043
 14518.460292117668 7402.4093841755757 -999867.20050517481
 13690.521222532861 6869.8978006829648 -999882.68018446222
 12983.873398519527 6568.9113724930421 -999894.1286131005
 12337.827031807459 6475.0796909365645 -999902.92097139568
 11686.647746973922 6584.2430674502748 -999910.03095661895
 10969.693663387385 6911.4347930362146 -999915.94541242963
 10137.050561159653 7481.1906431227499 -999920.63284666836
 9141.1920886252374 8313.4039978715646 -999923.66004668933
 7900.192320143813 9424.8933941478481 -999924.37631343596
 6260.9707103246574 10868.127904047067 -999921.33892703056
 4062.7001608541764 12693.307543434896 -999911.18326129892
 1167.5102429765964 14926.681624284331 -999887.90926559351
 -2518.6388470860948 17604.894761391228 -999841.84956361877
 -6574.3950851859954 20339.340232267703 -999771.51818211924
 -9632.9366062561967 22052.551469449434 -999710.40382003982
 0 -0 -0
 -0 0 -0
 0 0 0
 0 0 -0
 0 -0 0
 -0 0 0
 -0 0 0
 0 -0 0
 -0 -0 -0
 -0 -0 -0
 0 0 0
 34739.352959076743 20555.794238912338 -999184.9862158621
 31565.019557321801 18329.890716372458 -999333.61028571008
 27509.333041518497 15254.933338510611 -999505.13935869711
 23803.280995037989 12415.852999806386 -999639.56024567108
 20840.242102991484 10078.366952166207 -999732.019507561
 18598.511528688501 8235.7178602167405 -999793.11275895662
 16927.648351067786 6795.6403716038822 -999833.62315599422
 15678.473417861087 5683.6710419118426 -999860.93100729387
 14724.439875307755 4846.991344573722 -999879.84155360598
 13973.412680060925 4243.726372902458 -999893.36157639569
 13364.785337917452 3841.888991267163 -999903.30652611132
 12850.465212476918 3615.810945834462 -999910.89175737405
 12383.638627666203 3549.2894866163329 -999917.02057644736
 11917.426982207398 3638.6049298479466 -999922.36473052658
 11406.305275257959 3891.8422186643488 -999927.37224466086
 10804.957889072548 4325.2384196708708 -999932.27030515845
 10060.369244667703 4960.0262059243732 -999937.09157661407
 9095.9597700767681 5826.4962357721097 -999941.6560267281
 7799.8493415180155 6976.0476276665786 -999945.24705593067
 6036.8269485228193 8477.534652988923 -999945.84259678842
 3659.7772275526236 10416.186400377426 -999939.05268847116
 543.95830548205299 12884.913717778298 -999916.83809597243
 -3256.0503987687257 15846.124409422315 -999869.14067641972
 -7269.2816553811763 18911.394486061341 -999794.7372850125
 -10264.717293804088 20903.863903759811 -999728.79525037738
 0 -0 0
 0 0 0
 0 -0 -0
 0 -0 0
 0 -0 -0
 -0 -0 0
 0 -0 -0
 0 -0 0
 0 0 -0
 36120.127314609446 19556.414464887133 -999156.08543212805
 32737.976477932662 17202.476507797601 -999315.9158635115
 28498.29350902743 13941.877365547693 -999496.60896002909
 24602.867691181327 10917.221631739492 -999637.69095268392
 21428.958186045675 8452.9292830777231 -999734.63866047759
 18993.549842407792 6535.7593091285062 -999798.24410459795
 17180.834035876513 5068.1982760595001 -999839.55328245868
 15846.155148480406 3948.6346842887833 -999866.64493378333
 14861.4796536101 3100.0889441933209 -999884.75629496586
 14125.057188437513 2468.8773984293393 -999897.18841679639
 13561.596115040029 2016.9304423851652 -999906.00313349615
 13116.988335720393 1717.0508585559094 -999912.49434805533
 12748.929066295479 1549.9480679249793 -999917.52783349564
 12419.910321523619 1504.1561569339744 -999921.73860850767
 12094.042664125707 1576.5925090872888 -999925.62147796713
 11735.359852685386 1772.2309689219824 -999929.5677829117
 11305.024068374727 2103.1874424595262 -999933.88433105685
 10755.78458185262 2588.8864460008226 -999938.80350999406
 10024.086386128358 3259.3310172979686 -999944.44568358071
 9023.9357077013119 4160.8172479589039 -999950.62687323324
 7646.9977285081141 5358.8186396539913 -999956.40229388361
 5765.8648233144904 6940.0859606242302 -999959.294176367
 3249.677268888357 9005.4099582975068 -999954.17004437337
 15.154071790321956 11621.682407426828 -999932.46585375711
 -3879.0757194244593 14721.958074777904 -999884.10164478922
 -8015.4751400976329 17867.297562929121 -999808.237531616
 -11205.960033409616 19853.67403127647 -999740.09526835987
 0 -0 0
 0 -0 0
 0 0 -0
 0 0 -0
 0 0 -0
 0 -0 0
 -0 0 -0
 38344.976568867285 18409.23545549524 -999094.97187298338
 34450.154938119085 16232.791985002475 -999274.57852639828
 29795.700027290437 13017.495646403715 -999471.24074031238
 25581.53756440779 9947.910039445198 -999623.24103718577
 22154.230775892804 7407.3119848594142 -999727.12366319611
 19508.194583398785 5424.7044273367201 -999794.98044647754
 17527.106221527305 3914.4754234353995 -999838.725710131
 16070.997921155975 2773.5917258788704 -999867.00626371114
 15010.26962680862 1913.6329158780304 -999885.50835322822
 14238.449246135415 1268.8767472405809 -999897.82303736696
 13673.210419145009 793.3125449467957 -999906.2025870427
 13253.102496843891 455.09082263139061 -999912.07021745248
 12932.439998493242 232.24941442318411 -999916.34552891215
 12675.432539481437 110.09098111997737 -999919.65741749119
 12451.413873633504 80.180574522248051 -999922.47492674307
 12231.698984072762 140.10214823851999 -999925.18015667109
 11987.194395911974 293.31457243941503 -999928.10798430734
 11685.620224960603 549.21773100913731 -999931.56997858698
 11287.636380620102 924.06469220328881 -999935.86562808289
 10742.081608421353 1443.3360151769816 -999941.26050676859
 9981.557824915797 2145.1979904450659 -999947.88195633946
 8919.5225705518624 3083.6062006203692 -999955.46575330687
 7448.8077461879147 4330.3710325496459 -999962.88088602608
 5444.4508703481015 5971.9719379257158 -999967.34621981182
 2777.0272963314278 8091.474101621272 -999963.40741362039
 -655.02863684347426 10725.924659460039 -999942.26107195055
 -4835.0592675271273 13763.961486300163 -999893.58212065918
 -9384.2977911341786 16718.310427968136 -999816.19963441335
 -13114.443015970279 18362.777851633218 -999745.37747065991
 0 0 0
 0 0 0
 -0 0 0
 0 -0 0
 -0 0 -0
 41874.798809067426 16344.002459333793 -998989.17652210302
 37231.333239591586 14951.384010887639 -999194.81781150238
 31812.054918297945 12129.752985259334 -999420.26307974779
 27010.976671695618 9209.765287478338 -999592.71073902433
 23162.971141675032 6699.4136624825414 -999709.25504592014
 20214.163015465667 4698.6423640035682 -999784.63199507084
 18010.395998693923 3159.8820458452951 -999832.80641386588
 16391.140589497707 1995.4950578136445 -999863.66496120312
 15215.990080803427 1119.8910435425528 -999883.60297082155
 14370.530116573969 463.32015090353912 -999896.63125675474
 13765.548616169088 -26.007136414544092 -999905.25000868191
 13333.386196182793 -384.68748235821619 -999911.03245643049
 13023.408790136573 -638.01564837181388 -999914.98826626129
 12797.40625553415 -803.18719823059416 -999917.78726226056
 12625.294335586592 -891.41284975723329 -999919.90045506693
 12481.591128405635 -909.00468906168692 -999921.68873036187
 12342.729347782812 -857.81472820339752 -999923.45766370511
 12184.799719876219 -735.30045137011916 -999925.49221881165
 11981.169185596127 -534.22397762059654 -999928.08050863747
 11699.605507295735 -241.75375148648686 -999931.52804884443
 11298.859147270428 162.18767172236525 -999936.15270032559
 10724.945818000031 707.16858089247728 -999942.23605656286
 9907.2813112620388 1434.5283349417161 -999949.89269736689
 8754.5755638009487 2398.9831177218211 -999958.80029464152
 7151.0598751006855 3667.5574520909386 -999967.70516102086
 4954.8158822768091 5312.0629118293346 -999973.61554552685
 2003.0090748282878 7389.2184677818232 -999970.69327309867
 -1857.6336284495417 9892.3726152977724 -999949.34379764588
 -6663.5624394560018 12638.329060958098 -999897.92957789567
 -12026.739288595658 15022.474908927501 -999814.82424981834
 -16504.633176445692 15720.814527635997 -999740.19278725539
 0 0 0
 -0 -0 -0
 0 -0 -0
 0 0 -0
 40083.060712796119 13247.50476483194 -999108.52857004467
 34756.759539933737 11122.171802582545 -999333.91064282274
 29199.200851875336 8525.8013983943492 -999537.25162203272
 24685.207054478924 6152.9744867167065 -999676.33835038985
 21255.352150821982 4197.7251138501679 -999765.26700461702
 18715.78133174422 2662.9837009799353 -999821.29805628292
 16861.382471390069 1488.053284646219 -999856.72947606631
 15521.357030649426 599.70305511290155 -999879.35663867614
 14562.457802979328 -68.087010459419389 -999893.959471151
 13883.252315076821 -568.05186534835366 -999903.46165129053
 13407.54874157423 -939.46841316279199 -999909.67343847768
 13078.510513753236 -1210.3574059072027 -999913.74007845891
 12853.670768781181 -1400.1800003481274 -999916.40782804159
 12700.759397516826 -1522.1264016861139 -999918.18357400806
 12594.251429571528 -1584.7061432054013 -999919.43352320557
 12512.592053013059 -1592.6764683608253 -999920.44604647509
 12435.977500605994 -1547.4581201155979 -999921.4728352275
 12344.413375571305 -1447.1890450434871 -999922.75756794389
 12215.735261200609 -1286.4275529382305 -999924.55761231284
 12023.317441804815 -1055.4610801144527 -999927.16026698775
 11733.306444750491 -739.16986988998474 -999930.88918573619
 11301.241881950215 -315.54868098239581 -999936.08913817874
 10667.846650102556 245.87974557850069 -999943.06667479849
 9753.6056717891406 985.30921051909729 -999951.94701653486
 8451.8628011791607 1952.6243975538275 -999962.37592879077
 6620.6947081822436 3204.3571867729579 -999972.9488824188
 4076.0534672931585 4794.4436641583716 -999980.19935300865
 597.11149785085183 6751.3088316793792 -999977.03137968038
 -4017.2877967501108 9025.0418802082131 -999951.20381837559
 -9695.6659665467505 11371.066308647076 -999888.34022228164
 -15063.789521262524 13125.771767795412 -999800.37825595913
 -0 0 -0
 -0 -0 -0
 0 0 -0
 44178.28551412977 11344.232196956818 -998959.25216441811
 38874.878194259414 10204.269397447883 -999191.98191911331
 32474.208499547545 7928.3782184838856 -999441.1271311345
 27005.866078023741 5707.0160631254903 -999618.98399591795
 22838.058574717994 3827.5971061972382 -999731.85033834493
 19779.924045945634 2324.129802472673 -999801.65684269485
 17569.625323878692 1156.5246744335341 -999844.9733416955
 15985.374608826205 264.82863930338289 -999872.19066459069
 14858.478270857455 -409.88488439746141 -999889.52270631166
 14064.659050759714 -917.6902684573239 -999900.66667162348
 13513.06801834034 -1297.892645723563 -999907.85198807775
 13137.237899307558 -1579.7713377986151 -999912.45481936925
 12888.267821957326 -1784.3482592867451 -999915.35074417142
 12729.742827413909 -1926.3093952937668 -999917.11805512232
 12633.904603813065 -2015.6224439705138 -999918.15751121601
 12578.712099433244 -2058.707634585126 -999918.76556288078
 12545.557031745753 -2059.1545021311413 -999919.18117490853
 12517.414753780227 -2018.0739797692506 -999919.61762198363
 12477.208511561459 -1934.1438544229984 -999920.2860004938
 12406.139631515749 -1803.3909873912073 -999921.41465236666
 12281.76236657224 -1618.6899814465539 -999923.26613391447
 12075.570903351503 -1368.9915015942061 -999926.15049793886
 11749.841170186352 -1038.3068921000593 -999930.42915558547
 11253.341805153659 -604.56980653417486 -999936.49638042797
 10515.392817358454 -38.560314901353721 -999944.71098506171
 9437.6670231488752 696.70094229506753 -999955.2215219225
 7883.4157934238765 1645.38314841953 -999967.57170906465
 5665.3436699969889 2855.7199064709503 -999979.87416993373
 2539.3038838241919 4371.3741503288566 -999987.22143026569
 -1768.7463105819484 6210.4689034278326 -999979.15058889543
 -7405.7244024802403 8310.6639857205573 -999938.0421357071
 -13808.803490093063 10330.785343659285 -999851.28485207993
 -18752.260526757236 10969.264803865413 -999763.98612612532
 -0 -0 0
 0 0 -0
 42637.991030388039 8843.9672478905086 -999051.44310201122
 36735.1335364388 7344.433356018284 -999298.0482632491
 30346.0844808193 5356.2400606598239 -999525.10015961854
 25198.663344140707 3554.4347795226863 -999676.14423825638
 21386.32149356493 2086.4944759445893 -999769.10924161691
 18644.438715472508 935.79474495505929 -999825.73941321392
 16695.265309990315 50.159461148014095 -999860.62308716692
 15318.931760226158 -624.5368779539898 -999882.46323426138
 14354.400364463891 -1135.3877835763246 -999896.32566819515
 13686.423794582553 -1520.385337717026 -999905.18062071258
 13232.720374537976 -1808.7377481022711 -999910.80781200074
 12934.134857246207 -2022.0910317476364 -999914.30597994442
 12747.591781063436 -2176.0240457588097 -999916.37841528305
 12641.122652058139 -2281.4629988600868 -999917.4950688082
 12590.315349537848 -2345.8491269961623 -999917.98711257952
 12575.726519045735 -2373.9836558587103 -999918.10429860698
 12580.924262760705 -2368.5719884897048 -999918.05174795701
 12590.921466592581 -2330.4942411776105 -999918.01538586861
 12590.774753805961 -2258.8582153134603 -999918.18162820814
 12564.149258527916 -2150.8432830008737 -999918.75471289246
 12491.627870143599 -2001.3568400247066 -999919.97369987215
 12348.533215073805 -1802.4892368555811 -999922.12934807444
 12101.946598495968 -1542.7925330197768 -999925.57857058896
 11706.507839278205 -1206.392448374374 -999930.74874786683
 11098.413034050951 -771.99779289523633 -999938.11270874832
 10186.935954123082 -211.8913990257584 -999948.08937159402
 8842.9520359512044 508.8753483126207 -999960.770853122
 6885.1567967576393 1432.5637107384232 -999975.27088278485
 4069.2190732244662 2606.3724469796489 -999988.32407123712
 100.19803220255095 4071.3679738273868 -999991.70692720055
 -5264.1264359070337 5818.8273027636369 -999969.21463697427
 -11813.519271984394 7637.7192286439913 -999901.0481079591
 -17643.088006572441 8815.3583891006801 -999805.48653328745
 0 0 0
 -0 -0 0
 40688.81449691642 6819.7136185424579 -999148.59349397907
 34679.522965490214 5124.1997408599937 -999385.34773324651
 28552.190552715761 3374.2524893433583 -999586.60797090479
 23755.04325458832 1921.4001835380086 -999715.96273206885
 20259.016375542586 782.66443899748128 -999794.45872232714
 17775.706948676685 -92.831981486510657 -999841.995329611
 16030.900532368758 -760.64344013931577 -999871.20753108908
 14813.823828293705 -1267.9122490450441 -999889.4654021078
 13972.724506339333 -1652.0435796850093 -999901.01196162449
 13400.563347347863 -1941.8056062080457 -999908.32294413936
 13021.919213551548 -2158.7982961696293 -999912.88081007963
 12783.144169350175 -2318.8820377880934 -999915.60344423086
 12645.438611454852 -2433.4515171044318 -999917.0821603348
 12580.071270479581 -2510.5157141965497 -999917.71617352508
 12565.07251108313 -2555.5425217202278 -999917.79069842084
 12582.892989818227 -2572.0770618447773 -999917.52421066945
 12618.682377297402 -2562.1364634720194 -999917.09871959058
 12658.920171307836 -2526.4230743944213 -999916.68099224428
 12690.196191213934 -2464.3667442772435 -999916.43941740342
 12697.938149989563 -2374.0281842173554 -999916.55969731766
 12664.893286381703 -2251.8527142443495 -999917.26139586058
 12569.116922311012 -2092.2871873897361 -999918.81652168091
 12381.166772692104 -1887.2335641374552 -999921.56945373537
 12060.071972618418 -1625.3364578023397 -999925.95373128238
 11547.523362618944 -1291.0567771624007 -999932.49165960611
 10759.606925317672 -863.50032620490231 -999941.74091593898
 9575.5364701863637 -314.94163385611512 -999954.10390331189
 7823.75385504314 390.86636766249512 -999969.31757884356
 5269.2209705888508 1299.8974270058839 -999985.27268007421
 1616.7948989602335 2465.3408099417352 -999995.65402502904
 -3418.5002941285788 3929.7065566807187 -999986.43553906144
 -9792.9606707855582 5654.2937831008649 -999936.06139748497
 -15874.013139388539 7265.1781550330725 -999847.60483446997
 -0 0 -0
 46151.497009173065 6141.9022820468563 -998915.57018607436
 40243.168775840677 4996.837023010542 -999177.42117536103
 33186.145074375374 3262.9352943924428 -999443.86186937324
 27170.660853545218 1791.0662551771122 -999629.20489071892
 22647.682544946812 654.2597835584038 -999743.29426082107
 19402.792335733651 -208.54504011159358 -999811.72635578876
 17120.723392759119 -861.66720975047224 -999853.05838414491
 15532.001926871431 -1356.3400397938976 -999878.45124186983
 14435.210274318926 -1731.2258540149412 -999894.3081953103
 13687.066512362191 -2015.1248215683452 -999904.29716160323
 13187.351479407947 -2229.3655362993413 -999910.55784518272
 12865.966454376308 -2389.6214187627024 -999914.37464248389
 12673.354973549018 -2507.2752175920864 -999916.54634009209
 12573.814223975511 -2590.4746267056616 -999917.59092290653
 12540.933958066536 -2644.9431212458403 -999917.86125228542
 12554.485374678365 -2674.5982677280408 -999917.61231667665
 12598.267655112635 -2681.9886586932616 -999917.04185343534
 12658.546659426545 -2668.5855609348878 -999916.31642231683
 12722.833789558485 -2634.9346396494461 -999915.5897473587
 12778.789955035923 -2580.7002171324725 -999915.01764583669
 12813.078757569692 -2504.5961814793682 -999914.77237348584
 12809.967054681953 -2404.2217903146257 -999915.0586233018
 12749.453159057415 -2275.7781065548857 -999916.1326222088
 12604.614932858243 -2113.6625564760857 -999918.32472107047
 12337.784633522178 -1909.8890706773589 -999922.06265992252
 11895.011272332436 -1653.2899172871787 -999927.88506935874
 11198.186908644628 -1328.388975885616 -999936.41597487975
 10134.279006492019 -913.83334723389544 -999948.22930871381
 8541.8516252172849 -380.24698564094484 -999963.44542340271
 6197.6841934183412 312.40497444465888 -999980.74537151493
 2814.5047908301572 1217.0304085056757 -999995.29868883255
 -1914.3792423797643 2396.8651737620653 -999995.29508365935
 -8112.4857439414791 3896.1543561016374 -999959.50295813871
 -15066.460783040442 5554.3245880681434 -999871.06730710203
 -20363.880704627387 6290.0607060633647 -999772.84795045399
 45450.344700089183 3476.9883490833699 -998960.54812923598
 39053.896551305115 2642.4531393497664 -999233.61162721424
 31929.832508580599 1474.4984967154103 -999489.02527749515
 26120.876688849716 442.23695382436318 -999658.69386880368
 21826.239550894894 -366.7323411454571 -999761.71199664206
 18773.046191079226 -981.43345531894477 -999823.28914917761
 16640.841128360396 -1445.9056299064105 -999860.48614966788
 15167.11787890929 -1797.3041345002341 -999883.35731378978
 14158.618165193473 -2063.667974814342 -999897.632163484
 13478.870827974262 -2265.5458016124785 -999906.58930893335
 13032.88483070578 -2417.8859177015206 -999912.14501108986
 12754.487100108041 -2531.5171114050781 -999915.45366592263
 12597.045551459187 -2614.2353561832751 -999917.23668355518
 12527.027570263879 -2671.5923858742594 -999917.96472229529
 12519.625612884325 -2707.4834257465664 -999917.96088879823
 12555.806007478843 -2724.5726498284535 -999917.4608133306
 12620.283827888363 -2724.6012419829631 -999916.64901839464
 12700.080436196415 -2708.5837380542525 -999915.68221077928
 12783.397595882076 -2676.9231201940538 -999914.70577670494
 12858.615943120072 -2629.4394571112002 -999913.86731266463
 12913.229771437682 -2565.33416795943 -999913.33002289571
 12932.543202000006 -2483.0724695131244 -999913.28807924106
 12897.899008928034 -2380.1922341523577 -999913.98574381613
 12784.165378654247 -2253.002645120318 -999915.74099753634
 12556.089298577563 -2096.1552437179071 -999918.97209459939
 12163.023296367754 -1902.0160996447332 -999924.21872812381
 11531.410149959249 -1659.7794974735148 -999932.13355305931
 10554.471863667985 -1354.2243836591285 -999943.38299725635
 9079.0978565494515 -964.11566315780919 -999958.31936291174
 6892.0583653105668 -460.56462415431122 -999976.14342129009
 3714.149012393284 193.03917117269742 -999993.08389257954
 -770.43263340561475 1033.3931347542548 -999999.169265748
 -6770.6907961345123 2060.0438637507727 -999974.95666912722
 -13923.621702691502 3108.5399486516972 -999898.22969043592
 -20044.18320927121 3666.8599787157586 -999792.37087375775
 44708.232376856133 1044.7782539631223 -998999.5407387017
 38138.219924955956 584.8531712462318 -999272.30229188444
 31051.635187576445 -75.188310502083141 -999517.77888084378
 25395.158907979785 -698.49970350563365 -999677.24691632472
 21259.050055695461 -1206.878986805971 -999773.27241422108
 18338.058377934405 -1600.5312412592214 -999830.56260282092
 16309.087630477192 -1900.6333857702189 -999865.19154003658
 14914.687404849195 -2128.8456808321671 -999886.50361712696
 13967.396518902171 -2302.4614046917068 -999899.80023298517
 13335.529538671444 -2434.3198164851906 -999908.11464801838
 12927.706109001556 -2533.7345103042544 -999913.22353701806
 12680.402323205142 -2607.4090879715527 -999916.20089623984
 12548.919797824099 -2660.1362199977561 -999917.72075866244
 12501.132258059853 -2695.3128594763748 -999918.22514686477
 12513.258245895106 -2715.3093127721249 -999918.01937129209
 12567.016093666227 -2721.7433094735406 -999917.32769257412
 12647.692523538095 -2715.6682614482224 -999916.32700927719
 12742.77093283485 -2697.7051722919909 -999915.16848968586
 12840.875677832686 -2668.1120873823447 -999913.99284624262
 12930.825327005348 -2626.8132879658724 -999912.94301469717
 13000.630692707742 -2573.3742180631025 -999912.17681690713
 13036.249254513337 -2506.9374705957248 -999911.88185254228
 13019.894840796562 -2426.0954807763687 -999912.29435338615
 12927.619108109588 -2328.7027611073786 -999913.72318197822
 12725.806863197116 -2211.5865810252253 -999916.57788261259
 12366.087185214294 -2070.1394593801733 -999921.39411573042
 11778.064028856905 -1897.7397874834082 -999928.83536351263
 10859.239244716 -1685.0089263613818 -999939.61701091938
 9461.9046057472078 -1419.017908413017 -999954.22832718061
 7378.36778567289 -1083.0395893226571 -999972.19297041814
 4330.9938943151938 -658.70399718612373 -999990.4042544266
 -11.28280485200967 -135.62297147550331 -999999.99073955393
 -5922.1510812061642 460.97575121833194 -999982.3576583378
 -13191.276967352087 1017.6313994334628 -999912.47348870768
 -19662.6253536406 1321.5813739069565 -999805.7984363134
 44193.598206921204 -834.84061244592226 -999022.63683996513
 37580.853431285112 -1057.9656986921834 -999293.0301788142
 30532.094149776945 -1368.1089576658546 -999532.85063809133
 24963.227881499402 -1667.7545424769858 -999686.97893316706
 20918.713562311616 -1918.2194565144607 -999779.33958299749
 18075.257678117101 -2115.8484663655931 -999834.3904093001
 16107.515909437276 -2268.7955050773899 -999867.69149632147
 14760.766778353025 -2386.5776812512054 -999888.20575656684
 13850.904212635516 -2477.0487597466504 -999901.00344080769
 13249.019431299113 -2546.0772373931354 -999908.98634566239
 12865.793399124728 -2597.9124577519347 -999913.85739526234
 12639.18629131673 -2635.5938765250603 -999916.64883369743
 12525.55770706857 -2661.2780688228954 -999918.01064045599
 12493.536794987165 -2676.472989469471 -999918.37068367179
 12519.877462292941 -2682.2154779260154 -999918.0258343477
 12586.681922009506 -2679.1965012998785 -999917.1952438372
 12679.515697835166 -2667.859115209626 -999916.05268112849
 12786.083033684909 -2648.4601254781101 -999914.74723579292
 12895.203534309669 -2621.1147751176659 -999913.41799335042
 12995.904593119934 -2585.8102984146253 -999912.20617057546
 13076.448614688734 -2542.4056051353609 -999911.26739594585
 13123.130163937038 -2490.5986381375919 -999910.78620701144
 13118.626636944076 -2429.8746953685468 -999910.99471109186
 13039.64509203301 -2359.4110382347685 -999912.19656299124
 12853.494176698408 -2277.9441978578566 -999914.79569895414
 12513.10595302886 -2183.5692139482794 -999919.32384812715
 11949.880167523472 -2073.4781180189939 -999926.44782127661
 11063.677695394332 -1943.6389617254983 -999936.90666133456
 9709.5153355294642 -1788.5452066776854 -999951.26202130096
 7681.784349943312 -1601.4097315718404 -999969.21236409701
 4701.1918261195779 -1375.8640483807069 -999988.00282480114
 424.04916747958424 -1111.3652602852376 -999999.29252453079
 -5457.7433812577474 -825.09610305360536 -999984.76601076534
 -12784.079111523261 -567.22204077997071 -999918.11943800026
 -19378.277192505477 -414.36135604938823 -999812.1376927353
 43954.435883413971 -2430.4890610173002 -999030.58025722858
 37348.276905383005 -2482.2539442081584 -999299.22677221929
 30327.94986330915 -2518.6997295506485 -999536.82854048