# OOMMF OVF 2.0
#
# Segment count: 1
#
# Begin: Segment
# Begin: Header
#
# Title: Oxs_TimeDriver::Magnetization
# Desc: Oxs vector field output
# Desc:  MIF source file: /mnt/gpfs/work/plgrid/groups/plggspinsym/MF/switching-obrazki/p-ap/Anisotropy.mif
# Desc:  Iteration: 9300, State id: 65215
# Desc:  Stage: 0, Stage iteration: 9300
# Desc:  Stage simulation time: 1.3688e-09 s
# Desc:  Total simulation time: 1.3688e-09 s
# meshunit: m
# meshtype: rectangular
# xbase: 1.0000000000000001e-09
# ybase: 1.0000000000000001e-09
# zbase: 3.4999999999999998e-10
# xnodes: 35
# ynodes: 35
# znodes: 5
# xstepsize: 2.0000000000000001e-09
# ystepsize: 2.0000000000000001e-09
# zstepsize: 6.9999999999999996e-10
# xmin: 0
# ymin: 0
# zmin: 0
# xmax: 7.0000000000000005e-08
# ymax: 7.0000000000000005e-08
# zmax: 3.4999999999999999e-09
# valuedim: 3
# valuelabels: Magnetization_x Magnetization_y Magnetization_z
# valueunits: A/m A/m A/m
#
# End: Header
#
# Begin: Data Text
 -0 0 -0
 0 0 -0
 -0 -0 0
 -0 0 0
 0 0 0
 -0 0 -0
 0 0 0
 0 -0 0
 -0 0 0
 0 0 0
 0 0 0
 -0 -0 0
 0 0 0
 25666.649105542881 3997.1554995016227 -999662.56600495242
 24827.44783118958 2973.2892368701332 -999687.32981132832
 23828.871647445354 2231.5152576528885 -999713.56158434937
 23174.766238141168 1999.739204744516 -999729.42902213323
 22836.145229649133 2228.6200803738661 -999736.73720814509
 22649.301875393121 2842.4145924429477 -999739.43095380696
 22374.078046629584 3792.6506515438723 -999742.47505675117
 21653.926115481543 5031.6631927888466 -999752.8643866441
 20185.67549201853 6304.3321927430807 -999776.37194551388
 0 0 0
 -0 0 -0
 -0 0 -0
 -0 0 0
 0 -0 0
 -0 0 0
 -0 -0 0
 0 0 0
 0 -0 0
 0 -0 -0
 0 -0 0
 -0 -0 0
 0 0 -0
 -0 -0 -0
 -0 -0 -0
 -0 -0 -0
 -0 0 -0
 0 0 -0
 0 0 -0
 -0 -0 0
 0 0 0
 0 0 -0
 0 0 0
 25523.361438176558 1443.233101283362 -999673.18414525432
 24378.080237532056 23.468551425335733 -999702.81016568083
 23744.567517140567 -1139.2202752993671 -999717.40891643381
 24262.691976774291 -1154.8100869028406 -999704.95056876831
 24106.769335886162 -2211.4226700336853 -999706.94369998307
 23688.304463291286 -2997.5889186790405 -999714.89870479028
 23390.206074364265 -3290.1492502822525 -999720.99766770401
 23276.833334561717 -3154.3606943866125 -999724.08145374025
 23269.115855025771 -2680.0249555933419 -999725.64522150904
 23207.867114805016 -1932.2389041618542 -999728.79390202567
 22850.019493470129 -959.5469110876337 -999738.44373359636
 21955.67939509694 132.86499003877992 -999758.93618871656
 21131.332504703045 596.5536376729608 -999776.5304858546
 20003.994914009425 3023.6779691353659 -999795.3278341617
 18335.960843092635 5335.1060300116742 -999817.64796567243
 -0 0 -0
 0 -0 0
 -0 0 -0
 0 -0 -0
 -0 0 0
 -0 0 0
 -0 0 -0
 -0 0 0
 -0 0 -0
 -0 0 0
 0 -0 -0
 -0 0 -0
 -0 0 0
 -0 0 0
 -0 -0 0
 0 0 -0
 0 -0 -0
 -0 -0 0
 26451.863029093507 -231.70762127041678 -999650.06139842176
 25045.234537069358 -1867.225796219489 -999684.57510097092
 24285.867398332997 -2826.2524328706368 -999701.05978832324
 23452.94039206938 -4397.2772762007535 -999715.27123452607
 22991.823633993881 -5548.4655835033345 -999720.25615951791
 23138.609190955634 -6224.9733360185046 -999712.88601861813
 23303.224445946897 -7006.4780209281962 -999703.89065771073
 23376.15665939463 -7604.0169534720853 -999697.8214570675
 23465.602564866142 -7875.1121840900942 -999693.62712000706
 23626.347703766329 -7834.8700584616618 -999690.15725140937
 23832.628489942184 -7543.6681454094305 -999687.50061715406
 23993.654224466911 -7056.9013854619989 -999687.20342904876
 23960.043797779745 -6403.224661631496 -999692.41020182858
 23579.272378454709 -5555.4853901435235 -999706.53418699943
 22930.869559455918 -4424.322012766419 -999727.26310528035
 21993.971279704274 -2478.504041728916 -999755.03111765475
 20517.125049799859 -291.16358038925159 -999789.45923802385
 18764.984221925177 1251.6019770814089 -999823.13878987706
 16292.941636728945 3894.322530121286 -999859.67730719747
 -0 0 -0
 -0 -0 -0
 0 0 -0
 -0 0 0
 -0 0 -0
 0 0 -0
 0 -0 -0
 -0 -0 -0
 -0 -0 0
 0 0 0
 0 0 0
 0 0 -0
 -0 0 0
 0 0 0
 -0 -0 -0
 25494.161334013643 -2097.1863705758051 -999672.77123426867
 24809.633263479733 -3474.9166355488028 -999686.15427628462
 23590.209689839838 -5455.8007383233853 -999706.82514679921
 22786.926870158488 -6971.0877277912523 -999716.03963310749
 22329.025620444787 -8280.7957520391519 -999716.38129849348
 22202.905608534988 -9233.3408954026982 -999710.84639431979
 22415.493328777022 -9879.4180282291927 -999699.9263570297
 22760.262519438187 -10422.459006720863 -999686.62229635695
 23117.892281434251 -10829.22252586835 -999674.09239008941
 23480.815229541236 -11043.799808106556 -999663.28621289006
 23861.580927603834 -11063.414796772991 -999654.05306469405
 24245.838743843313 -10917.493550350931 -999646.41130661091
 24580.986890053624 -10637.117851781901 -999641.24905253795
 24779.526487379673 -10227.758701966575 -999640.61943230149
 24752.451841880018 -9639.0847871113947 -999647.13983099163
 24479.39418758469 -8758.6428120240016 -999661.96558451711
 23919.319587282229 -7435.3825472615417 -999686.24139619805
 22904.227750741149 -5768.5733151495733 -999721.02104189561
 21299.129637152586 -3805.7350785967687 -999765.90432821389
 18879.187292982897 -1317.5078911159421 -999820.90419240261
 16292.662531775381 156.10349303955229 -999867.25357885624
 -0 -0 -0
 0 -0 0
 -0 0 -0
 -0 -0 -0
 0 -0 -0
 0 -0 -0
 0 0 -0
 0 -0 -0
 -0 0 -0
 0 0 -0
 -0 0 0
 -0 0 0
 -0 0 -0
 23775.540792732336 -3294.5787205438787 -999711.89320277038
 23394.843329104649 -4769.8529517196121 -999714.92427012709
 22605.100713311822 -6758.6848591643538 -999721.62605433085
 21883.089527124488 -8569.8111694934723 -999723.80622313265
 21482.817825636801 -9939.1544291982609 -999719.81162098772
 21391.54355718743 -10970.463940694506 -999710.98362735158
 21557.262309976395 -11711.010659859456 -999699.02304194716
 21931.22798495711 -12231.424085947561 -999684.65703135694
 22418.746407067065 -12624.913714996821 -999668.95088485384
 22944.488194467114 -12911.946306336748 -999653.35597099655
 23477.534744698751 -13083.26948528779 -999638.75146068993
 24007.92526246066 -13139.099972963677 -999625.42163376999
 24520.860857569813 -13092.593524462949 -999613.58102899301
 24983.938805253565 -12956.657956942816 -999603.88545481442
 25347.201613626024 -12726.254522502215 -999597.69998544245
 25558.293114527391 -12363.186437777713 -999596.88138477935
 25580.96900353194 -11799.742201055116 -999603.11129409191
 25362.325978570279 -10966.918129260979 -999618.16666550352
 24786.899897170944 -9843.4695543865273 -999644.29458713927
 23695.507456099403 -8369.4700005602899 -999684.18758041156
 21856.449300719309 -6439.4931422812633 -999740.38057489484
 19171.37019558682 -4257.9346800219873 -999807.14568214829
 16405.403123408676 -2485.6601317623854 -999862.33264488354
 0 -0 -0
 -0 0 -0
 0 0 0
 0 0 -0
 0 -0 0
 -0 0 0
 -0 0 0
 0 -0 0
 -0 -0 -0
 -0 -0 -0
 0 0 0
 22318.213903409662 -4438.2066268353619 -999741.06630171929
 21814.09030745276 -5823.452935316609 -999745.08393888501
 21151.469108806221 -7684.760620874461 -999746.74783604033
 20674.247991780117 -9413.5825771216423 -999741.94667075865
 20434.461822789184 -10831.81205692905 -999732.51653508609
 20441.338050121398 -11902.477515657301 -999720.20222045621
 20664.385893798593 -12689.311014660138 -999705.93903487711
 21060.950093916101 -13255.428358999821 -999690.31704831519
 21586.95724216137 -13661.318884529612 -999673.63256382849
 22189.642816309522 -13961.634433212681 -999656.28718857083
 22823.605429004405 -14182.644138708887 -999638.90262457065
 23461.198131866891 -14331.870203187331 -999622.01340241393
 24087.018352114344 -14413.925555360371 -999605.94951060053
 24686.797791158682 -14435.576297744285 -999591.00443719979
 25239.548636724641 -14401.160281851717 -999577.69671354257
 25716.174578985578 -14304.023278183065 -999566.94287230202
 26084.279034043022 -14120.204319518001 -999560.01831668383
 26311.105593593235 -13811.351150138113 -999558.38864062901
 26348.93651594768 -13335.6956619747 -999563.85126998741
 26113.417302252066 -12654.247526670488 -999578.89106179704
 25472.935781018587 -11703.456447169627 -999607.00210126827
 24229.846634211121 -10384.447498610505 -999652.47850552108
 22162.727424123157 -8603.1979923117742 -999717.35930583358
 19236.384135140161 -6327.0480539886157 -999794.94397017616
 16262.822493417976 -4281.3836198451854 -999858.5851803479
 0 -0 0
 0 0 0
 0 -0 -0
 0 -0 0
 0 -0 -0
 -0 -0 0
 0 -0 -0
 0 -0 0
 0 0 -0
 21578.339606370235 -5672.8089050864864 -999751.06626547733
 20690.025220468742 -6911.6505234521783 -999762.04766105139
 19840.64684836708 -8558.2389345535794 -999766.52538429061
 19366.180316888058 -10078.410275883218 -999761.6599501326
 19232.718898867482 -11355.136572603415 -999750.55058608239
 19350.907105870723 -12374.402500354738 -999736.17347625224
 19660.059264069878 -13153.472607582173 -999720.19496861985
 20116.297084220329 -13734.475193104065 -999703.30537754518
 20683.294632501944 -14162.579919313957 -999685.76195381221
 21327.952398975405 -14479.684079895771 -999667.67337721435
 22017.592296793577 -14720.52071978057 -999649.2044208264
 22723.918288227036 -14906.604309732043 -999630.64012943453
 23426.545833314711 -15048.776954180716 -999612.29047191236
 24111.588691874094 -15153.20945023853 -999594.42352091533
 24767.156958936714 -15224.384299876117 -999577.31369757524
 25379.264448591988 -15263.788450897517 -999561.3586459686
 25930.183389860464 -15266.381027050167 -999547.17907645821
 26398.836708083316 -15218.079095308432 -999535.64793313364
 26759.41254044521 -15096.784137228473 -999527.89903494169
 26973.253747894021 -14875.290974206015 -999525.47206196003
 26976.294918712381 -14519.812543252227 -999530.61711793905
 26666.234607317769 -13977.317164274427 -999546.67051456717
 25888.279346511332 -13161.291207668008 -999578.19974538451
 24438.984401975795 -11941.670857235744 -999629.99781846139
 22117.89122899096 -10150.873103768112 -999703.8354746938
 18910.309324092941 -7768.3608993499793 -999791.00454555231
 15629.357241774434 -5561.7049463290541 -999862.38584632182
 0 -0 0
 0 -0 0
 0 0 -0
 0 0 -0
 0 0 -0
 0 -0 0
 -0 0 -0
 21962.621567145394 -6973.7563410247267 -999734.46973503637
 20424.310870869635 -8036.7017970363604 -999759.1004585434
 19099.617217837193 -9449.9760121319105 -999772.92550633824
 18355.990643841076 -10729.86300671879 -999773.93827171752
 18120.425905340031 -11798.260915756173 -999766.19827056222
 18239.84648429765 -12668.25752567931 -999753.38121533359
 18591.986518135865 -13363.426456260833 -999737.84407246369
 19098.55387266618 -13907.137927153959 -999720.87942317582
 19710.306259780438 -14326.324404475292 -999703.08604915463
 20393.445250945177 -14648.736760189078 -999684.71124756511
 21121.604406564838 -14900.280272615961 -999665.87391742528
 21872.147624614921 -15102.577162678102 -999646.69824960292
 22626.100184008919 -15270.81233984591 -999627.36151075049
 23368.839972962134 -15414.353261135588 -999608.07071164588
 24089.463479044647 -15538.914759330248 -999589.03549278376
 24778.843931694119 -15647.952515514811 -999570.48299531185
 25427.498746542213 -15742.36057256791 -999552.71016144892
 26024.111454441289 -15819.112499555529 -999536.1430697405
 26554.432944281212 -15870.164915650284 -999521.38544233155
 26998.921885391057 -15882.425034285216 -999509.28299443878
 27327.301066528529 -15837.722752591661 -999501.0681107007
 27490.213473291125 -15710.043165201221 -999498.61566034204
 27409.00984396358 -15457.576457089768 -999504.78213435609
 26964.575477305505 -15011.041364214994 -999523.67671130772
 25990.754935825662 -14260.470939941883 -999560.46321692655
 24279.749515014075 -13049.149832529451 -999620.03453919245
 21620.394254940402 -11215.967503986702 -999703.33630793216
 17971.208380220931 -8772.1106021972319 -999800.02287704393
 14137.480190940476 -6510.0317205972606 -999878.86823397141
 0 0 0
 0 0 0
 -0 0 0
 0 -0 0
 -0 0 -0
 23419.565131065086 -8053.6420958261297 -999693.28437179385
 21245.43848073293 -8965.1891620123606 -999734.093010262
 19200.461405464768 -10205.452811649642 -999763.56755721313
 17922.394150993863 -11305.665066908055 -999775.45965346217
 17355.584547056216 -12195.014212104521 -999775.00734585116
 17301.312514807516 -12905.635254712612 -999767.02744386275
 17583.34877596311 -13477.52394072087 -999754.56097696803
 18077.052040955368 -13939.56107097598 -999739.4204624811
 18702.436742724381 -14312.237920997266 -999722.65089152451
 19409.395358038433 -14613.06782870276 -999704.82324557635
 20165.298443267515 -14858.439418826067 -999686.2445371201
 20947.008802311419 -15063.452981787352 -999667.10219277558
 21736.662001530538 -15240.98026888692 -999647.55291326274
 22520.076730500863 -15400.800076846586 -999627.76146976103
 23286.246101189357 -15549.664487105609 -999607.90246818925
 24026.74326125703 -15692.019089591226 -999588.15326370753
 24734.695975789615 -15830.553908437416 -999568.70117963245
 25403.539384698695 -15966.12714827823 -999549.77013184037
 26025.778176731492 -16097.195014290824 -999531.65992026858
 26591.557188521754 -16219.199074948672 -999514.79562218441
 27086.320297130595 -16324.076794413986 -999499.80278615933
 27486.765237807056 -16399.300035126944 -999487.63909070916
 27754.875147072777 -16425.168728166325 -999479.80506752676
 27830.196347614685 -16369.244565943203 -999478.62808746134
 27620.723808102674 -16177.99189197739 -999487.55279626139
 26993.4354330268 -15766.806385695987 -999511.26169739524
 25765.139129994754 -15012.627487083453 -999555.29042747105
 23697.449569881872 -13761.589717954548 -999624.45424885303
 20523.335272335389 -11879.421014398558 -999718.7964951254
 16134.325298617188 -9447.9768632329069 -999825.19436166948
 11414.319784467481 -7397.7113240712861 -999907.48930639739
 0 0 0
 -0 -0 -0
 0 -0 -0
 0 0 -0
 21916.673601411272 -9158.855706074728 -999717.84758520941
 19912.798914554001 -10429.925903324911 -999747.3166180742
 18111.726992854248 -11570.350634902106 -999769.01948976284
 17067.671429678423 -12423.344940518829 -999777.15271577274
 16682.713773667256 -13052.661060165095 -999775.63237978285
 16764.079387078098 -13530.984483405417 -999767.91211821442
 17150.119692080712 -13908.893788305231 -999756.17830955796
 17726.90292619912 -14217.302489962221 -999741.77927230496
 18419.62055115871 -14475.027171776348 -999725.55792433734
 19180.280903962939 -14694.951589670734 -999708.04499224771
 19977.571865240378 -14887.300130563655 -999689.58427963604
 20790.004018458421 -15060.82953515846 -999670.41926158115
 21601.899809425639 -15222.949434677877 -999650.7488793938
 22401.382945559883 -15379.538336301042 -999630.75575068675
 23179.417195240989 -15534.958465752588 -999610.61403126176
 23929.16284645849 -15692.281561918056 -999590.48988315673
 24645.273037572122 -15853.47346221123 -999570.54673298914
 25323.042081751926 -16019.326645561299 -999550.96153900458
 25957.378650605442 -16189.146139651937 -999531.95348665968
 26541.445047408288 -16360.284855258746 -999513.82820561819
 27064.606889029288 -16527.510256471858 -999497.04774884868
 27509.296803469431 -16681.842814255968 -999482.3433706566
 27846.544737787957 -16808.253659097423 -999470.88629689359
 28030.049330258003 -16881.646888386305 -999464.51979691559
 27988.638708406572 -16861.031613906554 -999466.02829519182
 27616.756346080463 -16682.437608306154 -999479.36999438191
 26762.074078904159 -16252.427724943858 -999509.70479732752
 25210.895985087202 -15446.88098662409 -999562.8067267281
 22685.564801408444 -14127.644144898393 -999642.82362279599
 18938.983955100965 -12227.319408477428 -999745.87148276402
 14443.73765077628 -10120.531182072011 -999844.46454999596
 -0 0 -0
 -0 -0 -0
 0 0 -0
 22752.573044388559 -9496.2033107333918 -999696.02507089183
 20773.532052641458 -10284.315577300949 -999731.3105125617
 18679.709076555151 -11412.946415345319 -999760.37785208097
 17196.222035558905 -12350.053368451674 -999775.85794491973
 16415.9013588913 -13016.589139096712 -999780.51920897071
 16204.314513815221 -13481.212334761882 -999777.813869223
 16395.312838554204 -13817.537649950189 -999770.10826000315
 16852.779663010831 -14076.681770123272 -999758.88635609171
 17479.090376197411 -14289.692971234075 -999745.11055288918
 18208.172417525228 -14474.6366018314 -999729.43707408092
 18996.211659811641 -14642.387879158476 -999712.33083311119
 19813.90078700606 -14800.180691622794 -999694.13521691621
 20640.994178816221 -14953.393303312778 -999675.1199204803
 21462.914289540178 -15106.270390525242 -999655.51261676557
 22268.841760900952 -15262.162719411013 -999635.51611362549
 23050.691307985471 -15423.642640932916 -999615.3144474671
 23802.477084275793 -15592.615745897248 -999595.07422698592
 24519.755374266657 -15770.373459250555 -999574.94812412234
 25198.973184306273 -15957.518950896758 -999555.08569532493
 25836.620162075185 -16153.729940539208 -999535.6552257695
 26428.045067342464 -16357.362206001791 -999516.88086574129
 26965.737718613433 -16564.814016688742 -999499.10251379583
 27436.843012965735 -16769.452134593466 -999482.86884797981
 27819.695379632249 -16959.770633596563 -999469.07442353631
 28079.138919329685 -17116.497005174053 -999459.14748318784
 28160.236141705969 -17208.54193448765 -999455.28523537901
 27979.54324802291 -17188.040342768985 -999460.71279906097
 27412.415695589552 -16985.300373900471 -999479.8942634816
 26274.543512234613 -16505.819004580873 -999518.48722382914
 24299.003901586839 -15635.442945950501 -999582.45849618339
 21130.610857649157 -14272.797167612131 -999674.83940819209
 16496.699276118492 -12450.835820048778 -999786.39498663682
 11436.471306928019 -10905.479627619727 -999875.13102293795
 -0 -0 0
 0 0 -0
 21517.744140021226 -10054.543151468804 -999717.9066362367
 19530.504115561391 -11052.755287814934 -999748.16629466228
 17638.083231874389 -12031.032961735436 -999772.05015232321
 16449.316983898156 -12777.477368050775 -999783.05448875844
 15903.513928256663 -13294.255681002103 -999785.14742449636
 15843.588519840634 -13644.277123711772 -999781.38330566301
 16124.678122240104 -13889.976042627775 -999773.5060107311
 16634.193850340584 -14076.225538765266 -999762.55354435591
 17290.921408824957 -14231.234058033866 -999749.21656084293
 18038.429989713968 -14371.609833199094 -999734.00055930321
 18838.003604992311 -14506.950525465631 -999717.29904339951
 19662.859149056087 -14642.964852339413 -999699.4326048292
 20494.015444641391 -14783.290288532718 -999680.67384500301
 21317.617062568286 -14930.435370792453 -999661.26327992335
 22123.345231794709 -15086.228172819387 -999641.41736688372
 22903.514259904863 -15252.038931157918 -999621.3304761902
 23652.520173005018 -15428.893544076191 -999601.17423574044
 24366.388732984225 -15617.508993598001 -999581.09851724782
 25042.261907459393 -15818.224066971587 -999561.23819700279
 25677.699596334813 -16030.811808801576 -999541.72940212535
 26269.686026256099 -16254.13615912497 -999522.73943807941
 26813.203661274747 -16485.59908481664 -999504.5158138274
 27299.221396939971 -16720.246183310759 -999487.46159153525
 27711.910764073058 -16949.374665511208 -999472.24508750241
 28024.824943475491 -17158.482120561905 -999459.95201318909
 28195.55297956564 -17324.499090534529 -999452.28626655252
 28157.89913756221 -17412.36301794949 -999451.82091499039
 27809.835799110198 -17371.191236934676 -999462.28280402673
 26994.497678848144 -17130.629026602386 -999488.78865358932
 25471.901240952146 -16598.937692791562 -999537.72190680343
 22893.074253917766 -15668.650592966727 -999615.12620598136
 18897.505444681799 -14266.545311379059 -999719.63568434876
 14045.17218068785 -12693.015788868915 -999820.79418693739
 0 0 0
 -0 -0 0
 19830.225635021423 -10500.996726267247 -999748.21391139214
 18207.367395362988 -11544.163250003518 -999767.58502533333
 16727.297223619458 -12413.721361376638 -999783.02498569898
 15842.357414884917 -13008.655544686068 -999789.87522001786
 15498.758172051334 -13401.032135267149 -999790.07838287426
 15562.852246295133 -13661.508540048173 -999785.55741437373
 15914.557078480426 -13842.907795034287 -999777.52564096684
 16461.516089504425 -13981.374357875202 -999766.74262504838
 17136.520488694441 -14100.000435327252 -999753.73450328456
 17891.804884628044 -14212.75465582421 -999738.90637659165
 18693.563542611635 -14327.769200875142 -999722.594378963
 19517.595285008083 -14449.689358759162 -999705.09149034845
 20346.189928731783 -14581.178217371669 -999686.66180817736
 21166.089193870641 -14723.799430026527 -999667.54793710366
 21967.246662259709 -14878.510222317023 -999647.97304233257
 22742.114611520356 -15045.927168117167 -999628.13900902588
 23485.208190258953 -15226.467728399151 -999608.22309381585
 24192.760143586747 -15420.396363956799 -999588.37614920933
 24862.317691096679 -15627.786067704319 -999568.72573207738
 25492.176624537322 -15848.37240144472 -999549.3874857655
 26080.551461602918 -16081.284476449073 -999530.48834192485
 26624.383810176943 -16324.598524134377 -999512.20586331713
 27117.66428444898 -16574.6563404181 -999494.82892656967
 27549.103632819628 -16825.055652144434 -999478.84639512515
 27898.876973546041 -17065.25007537827 -999465.07187769201
 28133.941138686463 -17278.707216493582 -999454.81520323444
 28200.99728572875 -17440.612890859695 -999450.11319929396
 28015.511272418822 -17515.022377813304 -999454.02851719467
 27444.554486583609 -17451.0729462093 -999470.98831434792
 26282.4021475794 -17177.216969370693 -999506.96773686388
 24230.410277575531 -16593.609428121294 -999568.67665204837
 20963.638452795887 -15585.842610899326 -999658.74545913353
 16775.456622066027 -14239.394878048059 -999757.8825338803
 -0 0 -0
 21182.314521238659 -11581.134269379554 -999708.5509690101
 19175.900735273219 -11741.54500811567 -999747.17851655534
 17334.122708071511 -12276.150428188788 -999774.38670962444
 16073.390180557273 -12787.189368786254 -999789.04470700724
 15396.421672607054 -13168.120420763727 -999794.75433924119
 15195.055681138085 -13431.415249844447 -999794.33253406337
 15346.343454768961 -13612.243460685659 -999789.57614616852
 15746.756669408671 -13742.590805955146 -999781.56656958547
 16317.714328224629 -13846.453470336581 -999770.97773709975
 17001.936295795476 -13940.237871514126 -999758.27274910791
 17758.172278112437 -14034.440647281132 -999743.80807937949
 18556.560943472115 -14135.419688974886 -999727.88495478476
 19375.104632219143 -14246.841594035255 -999710.77458687278
 20197.219257254848 -14370.714953020999 -999692.73023565253
 21010.150290017071 -14508.070867343818 -999673.99159150827
 21804.026597170723 -14659.384622357218 -999654.78384622536
 22571.323768957911 -14824.833751563434 -999635.31332559232
 23306.551838141433 -15004.443819000666 -999615.76183406508
 24006.005827322584 -15198.157675937455 -999596.28234976716
 24667.462919964579 -15405.824376549226 -999576.99895924539
 25289.723745311057 -15627.108606001284 -999558.01399893838
 25871.918286301985 -15861.29211919618 -999539.42556384252
 26412.485967644014 -16106.950156016841 -999521.35882215167
 26907.727074202874 -16361.456595154117 -999504.01548057073
 27349.761761608923 -16620.291589947068 -999487.74701796554
 27723.622605877237 -16876.111537702673 -999473.16002430674
 28002.975456642729 -17117.572844125873 -999461.26591554331
 28143.572866892566 -17327.866908001663 -999453.69294165133
 28072.945135064394 -17482.857920841485 -999452.98009979597
 27674.16381122432 -17548.474047639549 -999462.95164750773
 26761.485782647847 -17476.731720230047 -999489.06283514888
 25048.987060751777 -17200.25760081784 -999538.24308312277
 22131.564935953465 -16629.320523781233 -999616.75632834563
 17622.106869671592 -15677.001878932226 -999721.80778532673
 12299.882860619193 -14657.809769487285 -999816.91398694401
 20779.180136618688 -12354.91867187364 -999707.74812315102
 18793.130025644219 -12588.452431564025 -999744.14183290792
 16901.53438409213 -12826.660429045503 -999774.88211982057
 15699.144071972822 -13066.674019414446 -999791.37769110489
 15111.239321872181 -13271.387228966089 -999797.73990901583
 14983.650635021437 -13427.758459806739 -999797.57226970361
 15183.766441896723 -13543.701652360502 -999792.98926437239
 15611.450103290319 -13633.530098150117 -999785.18166790961
 16194.290163985686 -13710.693526085945 -999774.8555795541
 16880.570293940389 -13785.552003920244 -999762.47424200631
 17633.151122279342 -13865.287596671638 -999748.38123467856
 18424.871473252006 -13954.518228319286 -999732.86208477209
 19235.34367005045 -14056.011410104242 -999716.17477018654
 20048.841356675446 -14171.287653565016 -999698.56385137141
 20852.996395073515 -14301.065340864963 -999680.26492047135
 21638.049317456789 -14445.573021019934 -999661.50283074798
 22396.454487840823 -14604.757874247929 -999642.48602878465
 23122.665447463343 -14778.425329631998 -999623.39932965802
 23812.972218394927 -14966.315435901921 -999604.39762758091
 24465.276628374766 -15168.126295921997 -999585.60322974238
 25078.724105869136 -15383.467011587127 -999567.10957290139
 25653.109773132361 -15611.736806309123 -999548.99411327415
 26187.984916285161 -15851.90238183679 -999531.3434989925
 26681.358142225185 -16102.166537258006 -999514.29472543963
 27127.836192340983 -16359.501323536855 -999498.09765700251
 27515.922762568931 -16619.045078750627 -999483.20713016239
 27823.975964975783 -16873.337016702331 -999470.4182012697
 28013.936405927012 -17111.356842513753 -999461.06519166264
 28021.344598900785 -17317.242886435011 -999457.31141739199
 27739.380289153723 -17468.457303020561 -999462.54546162288
 26994.129817927322 -17533.003358546579 -999481.82111962512
 25510.62525991529 -17465.102755282733 -999521.97483827011
 22890.048500963923 -17198.196667424952 -999590.0498259333
 18747.594485827922 -16646.098252043841 -999685.66815473454
 13757.460160976067 -15877.889931164054 -999779.28809375374
 20189.608860249806 -12462.754462666355 -999718.49009872426
 18412.580032040423 -12784.573164178737 -999748.73422554182
 16621.683241783507 -13024.957654381336 -999777.01019993029
 15472.870365272827 -13195.842096178669 -999793.20863568189
 14930.201624250036 -13322.138446279223 -999799.78481027775
 14838.472882341834 -13416.200662268731 -999799.89261967293
 15061.904227416588 -13488.156921654676 -999795.58343888528
 15501.233348333775 -13547.786277932295 -999788.06216700142
 16086.859808329131 -13603.588329913549 -999778.05303280056
 16770.030648397289 -13662.208413938173 -999766.02769513335
 17515.986412197184 -13728.446613124892 -999752.32931641536
 18299.223022559145 -13805.5472902479 -999737.23812849319
 19100.38084902729 -13895.554619483786 -999721.0055876784
 19904.297141860945 -13999.633086526959 -999703.87076810445
 20698.851833669774 -14118.328651254615 -999686.06588711776
 21474.343433787653 -14251.76809235069 -999667.81466661708
 22223.18323075739 -14399.814713024945 -999649.32624562038
 22939.756740771147 -14562.182788360962 -999630.78703745035
 23620.32087135379 -14738.522157696994 -999612.35306819889
 24262.844272692379 -14928.460131069338 -999594.14537396829
 24866.702972523392 -15131.601552512426 -999576.25107729156
 25432.164781499145 -15347.464690665056 -999558.73280267778
 25959.581294412423 -15575.351550614847 -999541.64923883684
 26448.193232756257 -15814.131039445938 -999525.09039752965
 26894.388345377702 -16061.938367522707 -999509.23257937259
 27289.143827904489 -16315.768520562042 -999494.42135848035
 27614.168730477446 -16570.943409463951 -999481.29623312363
 27835.912664100364 -16820.350057928066 -999470.97896341432
 27896.053492404833 -17053.240958279755 -999465.35566390073
 27696.381799713785 -17253.147125482854 -999467.47788483393
 27075.742972158852 -17394.170346304421 -999482.03934861661
 25780.096794696197 -17434.772107392255 -999515.59033904993
 23448.437451116217 -17310.604459920025 -999575.16663547291
 19739.179694617378 -16947.747964466278 -999661.51202490355
 15189.542868218317 -16396.110923851829 -999750.19146486151
 19522.786310844622 -12460.540300393264 -999731.76189920236
 17949.472932463847 -12828.939522076971 -999756.58774132899
 16335.047504398295 -13108.930405112078 -999780.63702327386
 15286.960575611589 -13277.141792437033 -999794.9921569837
 14797.439353828146 -13374.478264550098 -999801.05977125315
 14732.98396823495 -13434.26371286657 -999801.21011223283
 14968.647338003457 -13476.353750118966 -999797.14316778898
 15410.914764742569 -13512.280490429444 -999789.93892820412
 15993.696957865623 -13549.172580444852 -999780.28665302531
 16670.54714239046 -13591.759273779431 -999768.65170789231
 17408.230712735523 -13643.307370736331 -999755.37691349268
 18182.213044333104 -13706.077116060882 -999740.74168201175
 18973.709899436264 -13781.574719219057 -999724.9954517046
 19767.856287730541 -13870.721600818346 -999708.37494744442
 20552.648304606388 -13973.983151965544 -999691.11051491066
 21318.385964938749 -14091.481580883768 -999673.42495772359
 22057.425908155121 -14223.094882055086 -999655.52743646759
 22764.084517729192 -14368.551054412892 -999637.60493324092
 23434.58014994203 -14527.506151328858 -999619.81373831269
 24066.912903660155 -14699.607515851438 -999602.27352791035
 24660.610600831184 -14884.521585314582 -999585.06656610814
 25216.264485049807 -15081.924644714523 -999568.24457084027
 25734.785950920919 -15291.434890649669 -999551.84598451201
 26216.281419080689 -15512.48953833817 -999535.9269465399
 26658.398322934445 -15744.150476414372 -999520.61085533968
 27053.883096456128 -15984.838385523164 -999506.16423871624
 27386.918956569429 -16231.940779240329 -999493.11191653821
 27627.5109031711 -16481.175885591896 -999482.41179258551
 27722.751171871612 -16725.391648900906 -999475.7177348797
 27583.262891295843 -16952.19635722286 -999475.75590753369
 27062.997429467836 -17139.496299910628 -999486.78422314231
 25933.267809543624 -17248.570751168882 -999514.85853275866
 23867.952726264433 -17218.905876455345 -999566.82123461599
 20536.188322367947 -16985.641014837653 -999644.81340549316
 16343.826626428599 -16576.986599501408 -999729.00470401742