# OOMMF OVF 2.0
#
# Segment count: 1
#
# Begin: Segment
# Begin: Header
#
# Title: Oxs_TimeDriver::Magnetization
# Desc: Oxs vector field output
# Desc:  MIF source file: /mnt/gpfs/work/plgrid/groups/plggspinsym/MF/switching-obrazki/p-ap/Anisotropy.mif
# Desc:  Iteration: 23900, State id: 167450
# Desc:  Stage: 0, Stage iteration: 23900
# Desc:  Stage simulation time: 3.51892e-09 s
# Desc:  Total simulation time: 3.51892e-09 s
# meshunit: m
# meshtype: rectangular
# xbase: 1.0000000000000001e-09
# ybase: 1.0000000000000001e-09
# zbase: 3.4999999999999998e-10
# xnodes: 35
# ynodes: 35
# znodes: 5
# xstepsize: 2.0000000000000001e-09
# ystepsize: 2.0000000000000001e-09
# zstepsize: 6.9999999999999996e-10
# xmin: 0
# ymin: 0
# zmin: 0
# xmax: 7.0000000000000005e-08
# ymax: 7.0000000000000005e-08
# zmax: 3.4999999999999999e-09
# valuedim: 3
# valuelabels: Magnetization_x Magnetization_y Magnetization_z
# valueunits: A/m A/m A/m
#
# End: Header
#
# Begin: Data Text
 -0 0 -0
 0 0 -0
 -0 -0 0
 -0 0 0
 0 0 0
 -0 0 -0
 0 0 0
 0 -0 0
 -0 0 0
 0 0 0
 0 0 0
 -0 -0 0
 0 0 0
 9103.3536269279339 -109.58852126989969 -999958.55761281378
 8705.24937659645 -1451.6474438124853 -999961.0549181354
 8936.1989594443075 -2548.7983983909717 -999956.82305531658
 9412.5705923242022 -3123.6721651153075 -999950.82188428135
 9762.2798788310538 -3151.3507303325769 -999947.38205574674
 9720.6708153291165 -2621.8517194564529 -999949.31594179361
 9078.046439252681 -1514.3713459014541 -999957.64697924757
 7725.314078813456 132.97803303753841 -999970.15047411609
 6098.1249094435088 1903.6895446179967 -999979.59421115532
 0 0 0
 -0 0 -0
 -0 0 -0
 -0 0 0
 0 -0 0
 -0 0 0
 -0 -0 0
 0 0 0
 0 -0 0
 0 -0 -0
 0 -0 0
 -0 -0 0
 0 0 -0
 -0 -0 -0
 -0 -0 -0
 -0 -0 -0
 -0 0 -0
 0 0 -0
 0 0 -0
 -0 -0 0
 0 0 0
 0 0 -0
 0 0 0
 8563.8537895510781 681.34290253938002 -999963.09740915941
 7742.4499256072404 -2094.5917116621758 -999967.83305999951
 7486.2362882503312 -4918.4019800249325 -999959.88198937231
 7670.7327500871024 -5717.424839490719 -999954.23440889607
 7950.3933386802282 -6877.7576518506348 -999944.7423210158
 8642.3072010501055 -7786.6648755199794 -999932.33689903177
 9437.2013442756161 -8308.0120206447482 -999920.95495946682
 10069.706663301928 -8384.2455721563492 -999914.14903175586
 10352.497981602357 -7961.9295866740786 -999914.71309447079
 10163.901118807364 -6973.8760585336995 -999924.0271974504
 9509.1583671129447 -5373.878191027462 -999940.34689092194
 8740.0550675913528 -3355.6381391809955 -999956.17460471462
 8625.3784745803478 -2111.2260313822835 -999960.5720081242
 6914.3903226010771 276.98837661676896 -999976.0569553182
 4427.9979606825309 2549.8488827780616 -999986.94546715729
 -0 0 -0
 0 -0 0
 -0 0 -0
 0 -0 -0
 -0 0 0
 -0 0 0
 -0 0 -0
 -0 0 0
 -0 0 -0
 -0 0 0
 0 -0 -0
 -0 0 -0
 -0 0 0
 -0 0 0
 -0 -0 0
 0 0 -0
 0 -0 -0
 -0 -0 0
 10100.007420409402 2171.2657935141938 -999946.63630363857
 7993.2054327156775 -1141.0404036111172 -999967.4028155657
 6680.4591015091555 -3623.4855932373225 -999971.12049216114
 6010.0665313990039 -6319.6825310260656 -999961.96963334328
 5997.8454231185606 -8626.0396513093292 -999944.80712198047
 6413.4875225344485 -10001.611091419163 -999929.41498556489
 7198.9946952671444 -10993.398841206876 -999913.6561010133
 8276.9514597644429 -11720.736197292643 -999897.05290971138
 9405.0256728162658 -12179.929729764406 -999881.59039151808
 10384.407943245275 -12317.881662249372 -999870.20850859582
 11082.2658769097 -12070.215551551899 -999865.73762659379
 11427.695165546074 -11374.952817619076 -999870.00066588656
 11426.903433433363 -10208.568274039615 -999882.59861431585
 11157.326701082431 -8677.02987547677 -999900.10661736864
 10558.252037704826 -7022.145993105778 -999919.60315795382
 8957.7823633489552 -4755.3961249476115 -999948.57084893412
 6587.7120432218699 -2031.994167093151 -999976.23624251212
 4189.2434424090525 96.950993078679147 -999991.22038140194
 1039.0432539905385 2526.8138984167331 -999996.26779335458
 -0 0 -0
 -0 -0 -0
 0 0 -0
 -0 0 0
 -0 0 -0
 0 0 -0
 0 -0 -0
 -0 -0 -0
 -0 -0 0
 0 0 0
 0 0 0
 0 0 -0
 -0 0 0
 0 0 0
 -0 -0 -0
 10435.053614900906 1061.8618317824855 -999944.98953967693
 7924.7719045573413 -1393.0200508666971 -999967.62821873324
 5730.8265008395801 -4558.1967506738765 -999973.18987560831
 4533.001738209995 -7137.1920898789958 -999964.25555332401
 4224.2010613648008 -9282.0988486638089 -999947.99803107593
 4584.7440358018011 -11006.214472527608 -999928.91915631236
 5396.4281486211848 -12222.869426842497 -999910.73602907732
 6549.9017035443912 -13095.649990771866 -999892.79562310723
 7918.7628114606168 -13741.005981586412 -999874.23106616258
 9325.5655226966555 -14188.395163514551 -999855.85124575114
 10616.681026789342 -14409.254092077939 -999839.81691093161
 11684.183758630301 -14355.574219956463 -999828.6839947683
 12462.464111246811 -13984.205518275281 -999824.54910064
 12915.814275362034 -13279.703194195274 -999828.4008892118
 12998.039875333741 -12268.053121422641 -999840.26015759585
 12570.680886258089 -10952.797721766703 -999860.99744120531
 11390.132666787511 -9142.0726992599939 -999893.3380039063
 9445.6615315876934 -6808.4269757281645 -999932.21010243823
 6776.771565074464 -4138.4802558225938 -999968.47367720888
 3342.2684910888015 -1041.64245710707 -999993.87209238694
 574.10531567565954 1155.6384009061878 -999999.16745113977
 -0 -0 -0
 0 -0 0
 -0 0 -0
 -0 -0 -0
 0 -0 -0
 0 -0 -0
 0 0 -0
 0 -0 -0
 -0 0 -0
 0 0 -0
 -0 0 0
 -0 0 0
 -0 0 -0
 11552.375975067904 1294.4699613396836 -999932.43119565339
 8298.876063602107 -1477.8675137917526 -999964.4716507144
 5348.8836181570005 -4404.964482583021 -999975.99257779517
 3506.6272621226894 -6959.987671266842 -999969.6306072803
 2710.6133546012184 -9001.1517919653579 -999955.81494467019
 2753.0391628574266 -10633.183566989586 -999939.67627182323
 3422.7538460375035 -11936.120427153617 -999922.90392072615
 4534.2492236152029 -12938.878460567461 -999906.00858688774
 5951.9702232459413 -13713.424229172881 -999888.25177935371
 7545.9726332525888 -14322.826080791459 -999868.94888784189
 9176.9677912019888 -14789.59940912899 -999848.51403173897
 10720.676861349746 -15099.356866564429 -999828.52355283953
 12080.548351503108 -15220.425049253356 -999811.18168024439
 13184.937367999799 -15120.905259914274 -999798.73757207894
 13973.314452699376 -14778.674978138453 -999793.14723051398
 14371.629886687955 -14175.820054510526 -999796.23042907205
 14269.469982838484 -13264.578342702884 -999810.19858161046
 13536.806171587212 -11936.012118208857 -999837.1299833724
 12092.684696844324 -10110.570445457952 -999875.76395374758
 9863.3078862538405 -7738.9527521190212 -999921.40879563207
 6833.5617859669546 -4746.2054512131526 -999965.3873845496
 3451.8599911748374 -1470.6990329935586 -999992.96082870278
 857.6764470102504 1112.5922905208149 -999999.01326426677
 0 -0 -0
 -0 0 -0
 0 0 0
 0 0 -0
 0 -0 0
 -0 0 0
 -0 0 0
 0 -0 0
 -0 -0 -0
 -0 -0 -0
 0 0 0
 13834.288296643384 2224.3556919557486 -999901.82753562392
 9795.3368467641576 -760.33300442375696 -999951.73547015816
 5931.2756215790878 -3792.5820867454336 -999975.21783823031
 3246.639802862027 -6226.7334010779578 -999975.34325659345
 1773.9392246555396 -8140.8690886074655 -999965.28909263131
 1296.4451133714367 -9653.4884344349557 -999952.56357044948
 1594.845434742205 -10871.33965917195 -999939.63339896372
 2479.971148261759 -11867.896279142271 -999926.49868928432
 3789.4994460121466 -12687.133236221107 -999912.33432946249
 5387.0874842283656 -13370.453581883772 -999896.0997320934
 7147.5940662483918 -13949.619769167373 -999877.15245792049
 8950.9215422994839 -14435.565622130272 -999855.73731849552
 10689.238920944257 -14818.10439717884 -999833.06804354349
 12272.253739216059 -15074.201790686173 -999811.06226553302
 13625.083787834425 -15176.577043906431 -999791.99266697711
 14679.730017395324 -15097.229533521711 -999778.26501031138
 15363.423609793277 -14801.897152871104 -999772.40862891509
 15591.620154445711 -14236.115497347308 -999777.09235434362
 15274.231739888097 -13318.769430559099 -999794.63302500872
 14328.426869661342 -11963.019469453277 -999825.77599730564
 12671.370096259314 -10076.62779692724 -999868.94038775191
 10246.021163497318 -7567.2596412785169 -999918.87452524796
 7123.0894504175076 -4462.4594041664104 -999964.67340238974
 3648.6399313873608 -1049.1908103928397 -999992.79328667861
 877.62912786523793 1669.0122093332031 -999998.22208109894
 0 -0 0
 0 0 0
 0 -0 -0
 0 -0 0
 0 -0 -0
 -0 -0 0
 0 -0 -0
 0 -0 0
 0 0 -0
 17313.447398787896 3325.0251579762994 -999844.58229610277
 12519.705213692834 303.88640098965283 -999921.57924230117
 7724.4675264693387 -2813.3274936043781 -999966.20832398429
 4076.4681981443505 -5259.8216040951465 -999977.8580967295
 1732.6541250562611 -7072.5904334918532 -999973.48783567396
 532.76566896937516 -8446.5210691265129 -999964.18557994906
 258.43399193122355 -9530.0696292788707 -999954.55445971817
 712.34563825105909 -10419.901845835504 -999945.45761717169
 1725.9403548654998 -11176.562032749411 -999936.0507507564
 3152.3341609568488 -11837.510283330683 -999924.96525470866
 4861.3603783043573 -12428.857156576141 -999910.94137680763
 6734.0067055074578 -12966.422714681945 -999893.25682078395
 8660.2372026107441 -13453.090003367335 -999871.9991383676
 10541.149810748362 -13878.851235438617 -999848.11929065094
 12290.739763667552 -14224.193589645904 -999823.28940307559
 13834.451319548065 -14463.820439071878 -999799.68286401907
 15104.689964016039 -14567.761224915848 -999779.79009079025
 16035.327020139235 -14498.401272239254 -999766.30501728063
 16558.249223420153 -14205.117167070644 -999761.99119036586
 16603.350929379456 -13622.261036938316 -999769.35477246845
 16098.471919701884 -12673.685675576811 -999790.08641476696
 14964.89981084455 -11273.699130161382 -999824.46233405091
 13120.969033288591 -9333.11246725622 -999870.3581881508
 10504.950918567056 -6792.5459257467401 -999921.75060153834
 7133.9899256111912 -3679.4680486198213 -999967.78333235334
 3315.9038879237442 -295.06178824385984 -999994.45884462132
 122.29014624625556 2345.0519612591797 -999997.24288440868
 0 -0 0
 0 -0 0
 0 0 -0
 0 0 -0
 0 0 -0
 0 -0 0
 -0 0 -0
 22058.359389043413 4190.1984844357576 -999747.90373259853
 16484.804569649343 1355.2574268777039 -999863.19789039518
 10751.576981782195 -1731.1767276290734 -999940.70155161817
 6108.6361658533388 -4189.6540086773975 -999972.56530540902
 2799.0524859190277 -5968.308356051898 -999978.27206422237
 725.36194359631486 -7240.3335561060385 -999973.52535957005
 -297.54000705746967 -8185.1610239419579 -999966.45674190321
 -458.89829223161513 -8930.3665756416867 -999960.01818331808
 71.743908547846289 -9556.6843093310763 -999954.33127609547
 1144.7211021506973 -10113.326701392356 -999948.20377689006
 2625.3037048168117 -10629.825434872124 -999940.05549916916
 4390.3956035753945 -11123.577019744782 -999928.49267371604
 6326.6553424105596 -11602.398273637564 -999912.67508041824
 8330.1877653862393 -12064.714892926584 -999892.51953714795
 10307.484949973436 -12500.048288625136 -999868.74365928047
 12176.00409926584 -12890.518051974317 -999842.77737478644
 13863.246842738175 -13212.417958088346 -999816.6043823628
 15304.374616095405 -13436.63873720891 -999792.59492009447
 16439.200048209528 -13527.470493241944 -999773.35443780944
 17209.468421717364 -13440.68913720469 -999761.56260988512
 17556.31810690276 -13122.808468396275 -999759.75493737031
 17416.36948365804 -12512.010450270353 -999770.03339193016
 16715.366836154211 -11538.59207715404 -999793.70742389129
 15362.418830522158 -10127.192152543475 -999830.7037027725
 13249.730532461892 -8206.0605278970543 -999878.54523008433
 10270.99377858094 -5728.8096558406378 -999930.84132190235
 6404.0709594071959 -2747.2152080538472 -999975.72004711558
 1950.4822388238069 394.61968576990978 -999998.01994520938
 -1971.0293169089284 2655.6218724612345 -999994.53134299791
 0 0 0
 0 0 0
 -0 0 0
 0 -0 0
 -0 0 -0
 27850.084200465757 4308.3662067398718 -999602.82652194204
 21649.727989059389 2115.6892302300894 -999763.37857369054
 14967.141294073519 -726.62146846853193 -999887.72204819322
 9313.365256417952 -3134.0398564620359 -999951.7183453301
 5010.862148911976 -4897.973383884364 -999975.45025728294
 1998.2125662703259 -6120.452885590963 -999979.27338671137
 118.37634867912381 -6965.1237805942392 -999975.73622451513
 -797.34067171005415 -7574.543652540975 -999970.99484750512
 -906.95672512463739 -8050.4527070354243 -999967.18328188709
 -354.51704245236232 -8458.8305542791823 -999964.16060942935
 727.35707918453159 -8840.3436754280865 -999960.65886382735
 2214.7812481759265 -9218.9525573647097 -999955.05181871424
 3991.6233609761402 -9607.3908095990901 -999945.88102795638
 5949.7544486727638 -10009.781518264548 -999932.20004956191
 7989.889668873604 -10422.665925464218 -999913.76113047136
 10022.489702153594 -10835.679991538093 -999891.06293600355
 11968.107740229239 -11232.387691388163 -999865.28985852329
 13756.815626855501 -11591.064426000927 -999838.18553267943
 15326.743330996933 -11885.023883495345 -999811.90088243841
 16621.9961342649 -12082.356877873055 -999788.84065425943
 17590.063272730025 -12145.445323967922 -999771.51281277474
 18178.328881533846 -12030.802736665055 -999762.3758396724
 18328.822281358509 -11689.267364684149 -999763.67972749216
 17970.632028991175 -11065.967736657871 -999777.27556817862
 17010.724860545837 -10100.616857435094 -999804.28723766631
 15325.598470354449 -8730.0412269286753 -999844.44410703261
 12760.986435751774 -6897.6303818554461 -999894.78442499216
 9160.0455842730807 -4586.2277019087269 -999947.52866355947
 4469.7449728382671 -1909.6330991175946 -999988.18727088196
 -945.76661751690619 673.41332495130712 -999999.32601977221
 -5620.0151471482432 2038.2725554231656 -999982.13027770456
 0 0 0
 -0 -0 -0
 0 -0 -0
 0 0 -0
 26108.998904107782 2448.0404832042891 -999656.10450495314
 19928.04674510008 172.78724266080576 -999801.40182813001
 13519.150751378536 -2117.1501402355329 -999906.37073590315
 8274.4917338768446 -3878.9150901661428 -999958.24253029155
 4327.2581595279389 -5099.4335062266528 -999977.63505727297
 1559.7314576718036 -5900.4641124284772 -999981.37570708664
 -179.14353987386608 -6417.6784837587729 -999979.3904428588
 -1031.4405124481611 -6763.5472863703435 -999976.59500539
 -1127.2206952119843 -7019.8502147508943 -999974.72521882621
 -588.50889937817783 -7241.5811953591665 -999973.60623121762
 467.38908337348079 -7463.7095706606842 -999972.03690247762
 1926.8120287027473 -7707.0786014940677 -999968.44366951718
 3680.5734578988768 -7982.4362434194973 -999961.3662990391
 5625.6701049186613 -8292.7431767599774 -999949.78986270842
 7666.9924101435336 -8634.3875266933828 -999933.33006727067
 9718.5224926996125 -8997.9376918485741 -999912.28987239313
 11703.775933349294 -9368.7718954558659 -999887.61755612982
 13555.437954809206 -9727.6249411350054 -999860.80201939016
 15214.273487762754 -10050.960766325805 -999833.73821346567
 16627.363672395102 -10311.151394761637 -999808.5871476701
 17745.543678930298 -10476.564898274766 -999787.64608664333
 18519.624958595341 -10511.672438470732 -999773.23840655945
 18894.795770990375 -10377.062825265239 -999767.62463079055
 18802.702666150264 -10029.105897556687 -999772.91191917367
 18151.267088132401 -9419.367433835052 -999790.88164487737
 16813.372869045172 -8494.6659121007051 -999822.55982939701
 14618.527194118698 -7200.4661032810018 -999867.217159644
 11360.2612651409 -5494.9390828462965 -999920.37188391329
 6859.9198503715725 -3389.2825020150567 -999970.72670342121
 1233.8546414666855 -1051.1712303361403 -999998.68632002105
 -4086.2143637918798 930.66693289311968 -999991.21831705747
 -0 0 -0
 -0 -0 -0
 0 0 -0
 32209.565072941565 2707.9194954367877 -999477.46902559965
 25744.370919938308 1045.194253358429 -999668.01235955802
 18608.943856929778 -1104.2381863841592 -999826.22883506969
 12451.721193956513 -2887.6181270431234 -999918.30481337849
 7596.9159664405543 -4155.0449238965848 -999962.51053200942
 3961.080037317422 -4973.2773396751327 -999979.78797445726
 1395.9549265124356 -5458.3407826906587 -999984.12878692395
 -234.66620971622092 -5722.0249511507918 -999983.60154665972
 -1048.2604855911979 -5855.4097097629783 -999982.30750703032
 -1151.5593333485563 -5926.3516420602091 -999981.77596760076
 -647.93917821842138 -5982.3924979631001 -999981.89541352284
 359.02211244144951 -6055.118808864956 -999981.60315044469
 1765.4622010321568 -6164.113664821266 -999979.44321168121
 3469.253428705817 -6319.881408474057 -999974.01135211019
 5372.7063233297349 -6525.7585249305421 -999964.27361303126
 7384.9456315278312 -6779.1037136167461 -999949.75190299423
 9423.4667842081199 -7072.0845525039276 -999930.58953801822
 11414.758358403978 -7392.2801467800027 -999907.52446706325
 13294.083556256735 -7723.1860981980326 -999881.80288416659
 15004.537209739499 -8044.6413546435197 -999855.06330097502
 16495.400973053558 -8333.1776222646222 -999829.21536503115
 17719.623749842049 -8562.3020814944684 -999806.3322050072
 18630.063732727707 -8702.6674104128178 -999788.56980126479
 19173.992883371222 -8721.9859196542839 -999778.11786342168
 19285.40465765461 -8584.4757298800941 -999777.16514413024
 18874.913618894319 -8249.774514654433 -999787.81691733806
 17817.747460851639 -7671.6267336915453 -999811.81930335297
 15942.408579242006 -6797.5055487692571 -999849.80548430723
 13029.06321079828 -5572.1481889288107 -999899.59229735122
 8847.2015139809992 -3952.2083014995878 -999953.05243541917
 3325.6331555296329 -1955.6102764061054 -999992.5578485881
 -2907.0560054452103 152.84578209750288 -999995.76282279717
 -7781.5234202933807 1380.6065898650918 -999968.77042170835
 -0 -0 0
 0 0 -0
 30834.998801653339 1305.2967429236114 -999523.63606335723
 24373.080720173577 -264.97481669395717 -999702.89722724841
 17455.890406269617 -1967.6236161139441 -999845.69826920272
 11695.689979383575 -3285.093994141047 -999926.2067739577
 7206.4380304458437 -4161.6249483376068 -999965.37346485292
 3840.7530616257072 -4670.2297236441882 -999981.7186180196
 1447.0335328163144 -4908.6751547760805 -999986.90541535581
 -94.907507488532929 -4967.8392836203211 -999987.65570651798
 -882.53684696865548 -4922.6350229989739 -999987.49431837595
 -1004.0034653620122 -4830.8758053392012 -999987.8272339094
 -547.23101278868614 -4735.054577059439 -999988.6398336587
 396.37087008414767 -4664.9477669896496 -999989.04051617719
 1732.2974603206976 -4640.1053788988884 -999987.73420856602
 3365.6116088581921 -4671.8680306657707 -999983.42301640287
 5204.2403949872723 -4764.8684437170359 -999975.1056454482
 7161.8129240011622 -4918.1141531296971 -999962.25958223955
 9159.5238885185463 -5125.7902010134321 -999944.91318119655
 11126.949893540812 -5377.8897005933786 -999923.63172816101
 13001.951266856657 -5660.7439534929472 -999899.44756517734
 14729.818624889009 -5957.4803836095525 -999873.76246742113
 16261.696474882043 -6248.4189626354055 -999848.24572943372
 17552.151085794078 -6511.3775809478384 -999824.74662025634
 18555.569391631579 -6721.8125430130749 -999805.23507365619
 19220.97697076351 -6852.6413538961679 -999791.77599676442
 19484.834676060604 -6873.5655196717244 -999786.52487153152
 19261.516691452078 -6749.7464446981176 -999791.69575350906
 18431.637949833228 -6439.891619374841 -999809.3830918055
 16829.936722756516 -5894.3289739828024 -999840.99241622142
 14239.103846575203 -5055.2411353373236 -999885.83971306938
 10409.939286326811 -3866.4795953458402 -999938.33984880976
 5168.8177932559302 -2317.9301796811746 -999983.95513243217
 -1208.4017895389684 -589.40650053346235 -999999.09618213773
 -6832.7712541454348 694.57753713081104 -999976.41512139339
 0 0 0
 -0 -0 0
 29348.042453052105 477.26699655961363 -999569.13948980416
 23080.881777544651 -1101.5695548013093 -999732.99407436128
 16582.416980968443 -2503.4211373499043 -999859.36827619839
 11224.365380573232 -3467.5296780962044 -999930.99254885304
 7056.6792155251787 -4036.6095781019199 -999966.95398476219
 3921.73105405051 -4296.649603738997 -999983.07927070558
 1674.846390150416 -4332.2448109020515 -999989.21321405645
 208.96403819193245 -4217.8576528340809 -999991.08296566911
 -558.82670468913943 -4015.7930856284829 -999991.78052552394
 -702.80714868990208 -3776.2107260533007 -999992.62312012294
 -298.56993259885002 -3538.0211846191055 -999993.69661117985
 573.0237292001201 -3330.1409030456084 -999994.29088638874
 1826.2813151897142 -3172.8084768334179 -999993.2989690114
 3373.5190835871153 -3078.8171166408511 -999989.57007268583
 5128.5944739971228 -3054.6020536373294 -999982.18330379017
 7009.9821555820554 -3101.1765183263051 -999970.62099562713
 8942.8531746401059 -3214.9251254286746 -999954.84379722597
 10860.057777012995 -3388.2778547096455 -999935.2872652607
 12702.153559450098 -3610.2799421293143 -999912.80678551749
 14416.63930167033 -3867.0756564962758 -999888.59691323247
 15956.464410474813 -4142.3008880984362 -999864.10705998936
 17277.71200495676 -4417.3609254440071 -999840.9711500766
 18336.214332186431 -4671.5157298164613 -999820.96406544233
 19082.735379238096 -4881.6561492728715 -999805.99050200032
 19456.325343046527 -5021.6071104320881 -999798.0970506866
 19375.498227725289 -5060.8116517850303 -999799.46902058937
 18727.222924903901 -4962.3179335941486 -999812.31564841548
 17354.810157454958 -4680.2687249154033 -999838.43977367727
 15049.196593004888 -4157.8671904086823 -999878.10948251712
 11558.421103947376 -3329.1211722662192 -999927.65731016954
 6663.4760774708648 -2134.2777649850709 -999975.52117288718
 492.76043998360649 -581.00029709673186 -999999.70981285966
 -5296.2425590495914 998.53525563585492 -999985.47626558016
 -0 0 -0
 36645.536974886483 624.8783578630223 -999328.13136970205
 29869.858095077594 -521.9460609071507 -999553.65996513108
 22478.957980225892 -1916.0154333989694 -999745.48027634621
 16102.919157550921 -2945.288151311463 -999866.0016583777
 11032.591835767376 -3575.4981744620286 -999932.74660358531
 7120.4681265035188 -3876.4848139811147 -999967.13535953104
 4176.3059821446504 -3923.0439713863516 -999983.58396242769
 2054.8824810835213 -3782.457835832608 -999990.73519243614
 655.8439630940311 -3514.0521521073611 -999993.61063267209
 -94.963312145030287 -3169.4542158544218 -999994.97275833471
 -262.46551402485522 -2792.5828877191425 -999996.06628859753
 87.069480463138063 -2419.6196670046625 -999997.06892549049
 881.67182539238252 -2079.1308689064658 -999997.44993155962
 2043.8039725771953 -1792.4002184624042 -999996.30507656303
 3493.0024358244659 -1573.9588908636176 -999992.66076676431
 5149.3222418284231 -1432.2660595205089 -999985.71644518233
 6936.4358941645633 -1370.4647526554477 -999975.00352931209
 8783.8041875783601 -1387.1437337004813 -999960.45952640369
 10627.788727754045 -1477.0432558768669 -999942.43256798456
 12411.802759361837 -1631.673138147931 -999921.63932731887
 14085.660114196162 -1839.8212658026614 -999899.09952797601
 15604.189228115716 -2087.946191000985 -999876.06719994894
 16925.057885081933 -2360.4258117841664 -999853.97474109859
 18005.599048248085 -2639.6185920042994 -999834.40169690223
 18798.334582763087 -2905.6477950333515 -999819.07354671205
 19244.811871694841 -3135.8043540941312 -999809.88390147267
 19267.399690189501 -3303.4422688111199 -999808.90903129848
 18758.896327805815 -3376.2830930696286 -999818.33575957094
 17570.668975798897 -3314.1274532169664 -999840.13129648217
 15502.713137882893 -3066.2355802090779 -999875.12424538855
 12307.047544395145 -2569.3293875367058 -999920.96444030909
 7739.4631809832917 -1750.1582260753216 -999968.51833237917
 1761.1029216455113 -554.12310512028614 -999998.29573058977
 -4884.5250507475221 884.08264964795899 -999987.67983055522
 -10082.125032238035 1738.8713812355445 -999947.66217095288
 36257.805119889825 -1360.0080032308347 -999341.5441910337
 29498.089130551401 -2037.6301131188111 -999562.75981109263
 22106.079696322162 -2815.6316559930851 -999751.66589450487
 15924.170983619892 -3381.5984775651914 -999867.48400486598
 11082.358703240727 -3680.2721786522006 -999931.81613661232
 7371.7362070207437 -3735.8193743376892 -999965.84999633685
 4583.8812784766669 -3591.1242384754469 -999983.04578584153
 2569.7769388622501 -3291.9824523081716 -999991.27951098571
 1230.3246710640688 -2883.13160489027 -999995.08691460721
 495.09068846799204 -2406.8080353022756 -999996.98107558861
 304.541547408616 -1901.632954735958 -999998.14552155603
 599.00132771237884 -1401.5580672330482 -999998.83841552213
 1313.7824999536836 -935.01661982918392 -999998.69985888666
 2378.7794960252481 -524.42462379385483 -999997.03318906052
 3720.6198219343332 -186.09440917520769 -999993.0611544319
 5265.7584130717014 69.479527267654461 -999986.1333843238
 6943.3902047573702 237.06159955857032 -999975.86627591285
 8687.5912635276891 315.97640320939178 -999962.21224451798
 10438.496915048992 309.38446313125655 -999945.46954491897
 12142.573770671906 223.62366411834807 -999926.25122789945
 13752.093499800056 67.661841682556471 -999905.43320168427
 15223.880112011311 -147.30954127175283 -999884.09917061578
 16517.273455155071 -408.13064224681273 -999863.49723699107
 17591.146527452271 -699.74756351849419 -999845.01894903521
 18399.685885760355 -1005.0720081968359 -999830.20627982821
 18886.582089442327 -1304.5636110879618 -999820.78150574723
 18977.230472443738 -1575.4894380267792 -999818.67483890615
 18568.698114071147 -1790.8420728514245 -999825.98302655574
 17517.840569003602 -1918.0566569259352 -999844.71110290894
 15630.11062096931 -1918.0762193439523 -999876.00262512197
 12657.870928089547 -1746.6709199589061 -999918.36038961972
 8334.3358248705808 -1364.3132964907709 -999964.33811190864
 2514.3304089185835 -774.03599849287559 -999996.53949944628
 -4394.6097058951473 -125.07520371997855 -999990.33583416534
 -10260.012506389032 208.55465784105232 -999947.34293777868
 35930.301967088315 -2874.9775612249332 -999350.16280810011
 29255.420514132813 -3214.6022158842343 -999566.79952023947
 22004.70169226166 -3566.1709610097455 -999751.50688964257
 16001.091208769618 -3773.9202332166319 -999864.85217063315
 11338.271053063105 -3796.0783529986575 -999928.51414421853
 7786.8199024059932 -3638.1002258758745 -999963.0641491483
 5127.5580689461704 -3322.674499023914 -999981.33381699852
 3205.8265425517188 -2879.483559380612 -999990.71558220487
 1919.9117579718959 -2341.6012433485325 -999995.41541072028
 1199.2328814209484 -1743.5379686668741 -999997.76095541741
 986.4429310423601 -1119.4532132496226 -999998.88687680417
 1226.1204485552075 -501.36756402042062 -999999.1226292206
 1859.3883678923632 82.421170228140454 -999998.26793932403
 2822.8291313257196 608.49047990096835 -999995.83067882375
 4049.9540664173333 1058.9019631135866 -999991.2382609623
 5473.7376422403913 1421.2743890763377 -999984.0089598106
 7029.1747426407037 1688.4360798939226 -999973.86960162187
 8655.2617520237036 1857.8118291418441 -999960.816721941
 10296.178730128731 1930.7088177243086 -999945.12902809726
 11901.650760505143 1911.622956508196 -999927.34556409006
 13426.558015435299 1807.6513542327982 -999908.22575696406
 14829.816235456745 1628.0440747853665 -999888.7068183705
 16072.483006010969 1383.9139063719954 -999869.87156945653
 17114.918768356856 1088.1000985697419 -999852.93698309851
 17912.747501442293 755.19772789785702 -999839.26865938865
 18411.243297198951 401.75167343171552 -999830.4179788914
 18537.722866568522 46.618209097295512 -999828.16056443646
 18191.545955705224 -288.5758717126933 -999834.47849116893
 17231.778126580579 -579.09683978061742 -999851.35418693442
 15464.163901247462 -797.58154565955317 -999880.10456179851
 12634.095666247744 -917.11651926004936 -999919.76604324928
 8447.1416480067746 -920.94326066218616 -999963.8981790737
 2684.5581788414552 -824.49139540594808 -999996.0566728866
 -4365.3324746777962 -703.32187509283381 -999990.22455758322
 -10496.026604770026 -661.65986621774346 -999944.69628661615
 35813.976030112528 -3976.5582634794005 -999350.56216789712
 29237.362463400186 -4121.9192996747752 -999563.9981599329
 22134.976685878708 -4201.0559183528248 -999746.16475197661
 16286.236031566845 -4145.7330440357273 -999858.77573457931
 11768.350878713865 -3942.9716337173104 -999922.97647983429
 8345.6050248290376 -3599.9109115387837 -999958.69490604382
 5793.4286475056933 -3131.1654774018871 -999978.31575852644
 3951.5723312901964 -2556.4736834175396 -999988.92469787714
 2713.5707434003652 -1900.3336258777158 -999994.51261790993
 2006.0346926186623 -1191.033017392167 -999997.27862887888
 1771.3668386236445 -458.87347192905372 -999998.32584592851
 1956.4955442428754 265.98718769634166 -999998.05068610061
 2507.0562880782172 955.6014645649492 -999996.40074082743
 3365.5875686683676 1585.8667748044202 -999993.07889949426
 4472.2000470761814 2137.5457562589922 -999987.71508698014
 5766.4157230670116 2596.6575294588883 -999980.00270974613
 7189.2262085413931 2954.3374306585192 -999969.79300220252
 8684.8102992099666 3206.33883233192 -999957.1458124388
 10201.637582575921 3352.3528049686483 -999942.34249845846
 11692.888899396115 3395.3032937764588 -999925.87138483895
 13116.178954545156 3340.7153637806719 -999908.39853983163
 14432.575245007854 3196.2157608569223 -999890.73651904962
 15604.823551756195 2971.1730726283572 -999873.82284590823
 16594.626692978632 2676.4754529500487 -999858.71744165465
 17358.701535550659 2324.4187649492751 -999846.62451718305
 17843.258721079706 1928.6908260581702 -999838.93616417551
 17976.427715000656 1504.4133056959977 -999837.27915456996
 17658.152565498054 1068.1979699907824 -999843.51205629692
 16747.352020361323 638.0875600557747 -999859.5496591368
 15047.495578251737 233.10694822702288 -999886.75285652862
 12296.35612941814 -128.19016065640221 -999924.38873807911
 8180.9180955936099 -431.06855621685423 -999966.44281646446
 2449.0179308648817 -669.70166678443718 -999996.77690023172
 -4640.7185476275681 -847.98317102159831 -999988.87226603855
 -10840.073591255004 -960.12120619877476 -999940.7837326196