# OOMMF OVF 2.0
#
# Segment count: 1
#
# Begin: Segment
# Begin: Header
#
# Title: Oxs_TimeDriver::Magnetization
# Desc: Oxs vector field output
# Desc:  MIF source file: /mnt/gpfs/work/plgrid/groups/plggspinsym/MF/switching-obrazki/p-ap/Anisotropy.mif
# Desc:  Iteration: 9100, State id: 63815
# Desc:  Stage: 0, Stage iteration: 9100
# Desc:  Stage simulation time: 1.33929e-09 s
# Desc:  Total simulation time: 1.33929e-09 s
# meshunit: m
# meshtype: rectangular
# xbase: 1.0000000000000001e-09
# ybase: 1.0000000000000001e-09
# zbase: 3.4999999999999998e-10
# xnodes: 35
# ynodes: 35
# znodes: 5
# xstepsize: 2.0000000000000001e-09
# ystepsize: 2.0000000000000001e-09
# zstepsize: 6.9999999999999996e-10
# xmin: 0
# ymin: 0
# zmin: 0
# xmax: 7.0000000000000005e-08
# ymax: 7.0000000000000005e-08
# zmax: 3.4999999999999999e-09
# valuedim: 3
# valuelabels: Magnetization_x Magnetization_y Magnetization_z
# valueunits: A/m A/m A/m
#
# End: Header
#
# Begin: Data Text
 -0 0 -0
 0 0 -0
 -0 -0 0
 -0 0 0
 0 0 0
 -0 0 -0
 0 0 0
 0 -0 0
 -0 0 0
 0 0 0
 0 0 0
 -0 -0 0
 0 0 0
 23572.101041115442 -2374.5363723963233 -999719.31942396902
 23125.307594984646 -3657.0282530024756 -999725.88557713863
 22491.807041722095 -4706.4217866985255 -999735.94924358081
 22160.668737626642 -5271.0029152014067 -999740.52698156086
 22171.275281602848 -5398.9598494570819 -999739.60899072676
 22431.205251338084 -5164.3457583357495 -999735.05018272751
 22762.231773080377 -4604.5743381906241 -999730.30298169551
 22825.03524406856 -3729.7711476881714 -999732.517513206
 22116.00163022432 -2697.2271253672634 -999751.77291051892
 0 0 0
 -0 0 -0
 -0 0 -0
 -0 0 0
 0 -0 0
 -0 0 0
 -0 -0 0
 0 0 0
 0 -0 0
 0 -0 -0
 0 -0 0
 -0 -0 0
 0 0 -0
 -0 -0 -0
 -0 -0 -0
 -0 -0 -0
 -0 0 -0
 0 0 -0
 0 0 -0
 -0 -0 0
 0 0 0
 0 0 -0
 0 0 0
 22815.864456841155 -3358.4724213275204 -999734.04312951269
 21807.54999380662 -4841.6338639889973 -999750.46353817452
 21259.570219008398 -6041.7643347747226 -999755.73404598504
 22060.300808228105 -6379.837410141532 -999736.28562880051
 22295.97906403938 -7628.1863562720291 -999722.31148979056
 22220.289760391628 -8652.3971031577421 -999715.65694818122
 22226.180800601574 -9226.6063360513381 -999710.39137469127
 22442.527930500848 -9411.2594890822984 -999703.83671111206
 22855.982950223337 -9300.8685982071493 -999695.50258401094
 23363.583387324572 -8973.1536492360901 -999686.76368395041
 23743.038152102661 -8496.7814303756659 -999681.98585581826
 23643.434834727388 -7980.0163023519135 -999688.60518114851
 23412.155559490991 -7999.6081690509072 -999693.89176947554
 22946.449429676057 -6094.4685784253006 -999718.1192272742
 22031.286840052151 -4057.7065634631931 -999749.04722015909
 -0 0 -0
 0 -0 0
 -0 0 -0
 0 -0 -0
 -0 0 0
 -0 0 0
 -0 0 -0
 -0 0 0
 -0 0 -0
 -0 0 0
 0 -0 -0
 -0 0 -0
 -0 0 0
 -0 0 0
 -0 -0 0
 0 0 -0
 0 -0 -0
 -0 -0 0
 23447.145839626315 -3956.9814232627095 -999717.24685032398
 22174.072959894896 -5587.7529895203561 -999738.50956382463
 21601.510569272919 -6690.1511263991961 -999744.2756120346
 20964.229939413584 -8226.2999585466969 -999746.38236506726
 20647.824546893244 -9318.5243027802662 -999743.38329708343
 21007.845868546498 -10012.547362641468 -999729.17297999992
 21447.631151979218 -10865.75719946 -999710.92543717427
 21785.412012612382 -11615.394331271564 -999695.19276525965
 22129.603526622486 -12101.496454242346 -999681.86661123473
 22576.295285994594 -12329.340622367348 -999669.0943762227
 23147.55437285209 -12365.572434846255 -999655.5823607021
 23791.726490975165 -12286.459827216804 -999641.43404297356
 24369.771027748393 -12151.919281428258 -999629.15379546268
 24676.321940176658 -11948.697927371781 -999624.08321995987
 24717.0116433519 -11514.060594017845 -999628.1787465075
 24595.157518031821 -10270.601285771212 -999644.73338076065
 24110.461424123187 -8732.7186932058285 -999671.15856872697
 23324.414057094655 -7591.1921926219511 -999699.12749286101
 21663.583732545248 -5205.0843898834946 -999751.76730844413
 -0 0 -0
 -0 -0 -0
 0 0 -0
 -0 0 0
 -0 0 -0
 0 0 -0
 0 -0 -0
 -0 -0 -0
 -0 -0 0
 0 0 0
 0 0 0
 0 0 -0
 -0 0 0
 0 0 0
 -0 -0 -0
 22355.596232189688 -4951.1747683907679 -999737.82222416485
 21888.687880835918 -6408.8606939687697 -999739.87209046562
 20909.979723164637 -8270.6503843474839 -999747.15257918928
 20305.927824344526 -9666.3254439627563 -999747.0837404849
 20011.822025828551 -10849.269771056623 -999740.87658984971
 20013.49419747608 -11701.791721807676 -999731.22794104367
 20369.24985443116 -12303.254480208636 -999716.82169980661
 20885.315754144722 -12868.538969376339 -999699.05686193542
 21423.87560996259 -13370.613808752272 -999681.07126234332
 21980.269532271981 -13743.157171349058 -999663.94022303924
 22591.426125799597 -13977.008834667971 -999647.07306610874
 23273.609863027988 -14107.270695576532 -999629.59339820722
 23999.439408304588 -14182.137379569886 -999611.37142763357
 24690.565063277816 -14229.220537949801 -999593.87016914936
 25245.74208071606 -14207.609209357077 -999580.31010386988
 25641.313028954333 -13981.880438510472 -999573.42405926064
 25896.124242164893 -13383.66578249462 -999575.04382585338
 25875.099865465443 -12501.363558529434 -999587.01227863564
 25392.569241463214 -11304.934574091811 -999613.63330118358
 24169.700839796882 -9476.115154273728 -999662.95760265994
 22529.19202601321 -8241.6054186536185 -999712.21431308857
 -0 -0 -0
 0 -0 0
 -0 0 -0
 -0 -0 -0
 0 -0 -0
 0 -0 -0
 0 0 -0
 0 -0 -0
 -0 0 -0
 0 0 -0
 -0 0 0
 -0 0 0
 -0 0 -0
 20719.216816913417 -5523.5789550809268 -999770.07563240291
 20491.957399559244 -6958.2076983822344 -999765.80408991815
 19968.921884582924 -8765.7119018447484 -999762.17394619493
 19475.267051069826 -10366.43354356909 -999756.5958916581
 19233.654207239422 -11554.106483843265 -999748.25289629609
 19249.659438004255 -12438.190947108546 -999737.33651268831
 19492.422507425548 -13073.374526738911 -999724.52822928957
 19943.284886439473 -13538.453266269906 -999709.44562462496
 20523.319432251174 -13932.957939695247 -999692.28567721415
 21159.381490210424 -14279.060154510578 -999674.14141611953
 21827.399388250149 -14562.952740691053 -999655.68324469507
 22533.064414715689 -14782.36446764116 -999636.8053992549
 23280.888299878741 -14955.14659312824 -999617.09860843536
 24055.438732351995 -15106.071610324056 -999596.48982371774
 24817.227767677869 -15244.84717456539 -999575.75993045722
 25519.529067985677 -15342.945116658479 -999556.5755230143
 26140.818596436777 -15332.997636844104 -999540.67290259735
 26664.78554085306 -15149.174016845311 -999529.63524783368
 27008.448750277086 -14776.055690453652 -999525.99359613273
 27023.203840414491 -14139.97906395288 -999534.79551552876
 26456.882794933281 -13101.451662633599 -999564.09765312541
 25024.959695884369 -11718.337151849935 -999618.14307595231
 23072.854342657363 -10323.925593768183 -999680.4789295512
 0 -0 -0
 -0 0 -0
 0 0 0
 0 0 -0
 0 -0 0
 -0 0 0
 -0 0 0
 0 -0 0
 -0 -0 -0
 -0 -0 -0
 0 0 0
 19462.686678253416 -6278.6198337581764 -999790.8695123432
 19062.759437407676 -7533.0793981756251 -999789.90988977894
 18628.407863049404 -9131.6754991932903 -999784.77430048189
 18376.993921354537 -10588.260918961589 -999775.06211403722
 18299.494452459392 -11771.380937167378 -999763.25352236081
 18400.638229220083 -12654.981309324485 -999750.60288094729
 18669.879508600105 -13299.586730915969 -999737.24377554364
 19087.812660584535 -13766.241615337023 -999723.03464490746
 19633.049538825358 -14115.831618186507 -999707.6005830568
 20268.30631902914 -14404.378628877375 -999690.80701748654
 20956.910679832818 -14658.128353735772 -999672.92009332881
 21679.72946694514 -14882.782518163818 -999654.1862638084
 22432.601685219139 -15082.627181781541 -999634.57960343058
 23214.044869034391 -15268.273443191521 -999613.91944434342
 24015.14054584621 -15452.35173026524 -999592.16576090036
 24817.08547326301 -15638.993914164856 -999569.6744789558
 25598.125093199389 -15814.613431120804 -999547.21448950935
 26342.457388672581 -15950.272221757148 -999525.71940634819
 27029.359613516644 -16016.755660584233 -999506.31676692876
 27604.243886068198 -15991.190748562096 -999491.01423570688
 27959.25974890995 -15823.556252934079 -999483.81420701521
 27897.856813480397 -15417.864863176635 -999491.87041630072
 27121.970042916022 -14629.454721069991 -999525.07612143259
 25383.058399268812 -13247.623672469503 -999590.01636337477
 23130.941274018052 -11640.696320302735 -999664.67064959172
 0 -0 0
 0 0 0
 0 -0 -0
 0 -0 0
 0 -0 -0
 -0 -0 0
 0 -0 -0
 0 -0 0
 0 0 -0
 18951.741840387105 -7271.4868013146915 -999793.95725365018
 18155.601710047849 -8333.3913753171219 -999800.44444615627
 17508.103198753492 -9670.4851872470463 -999799.95401011361
 17236.430293187703 -10869.554252503198 -999792.35757286113
 17254.575042943303 -11866.713836629384 -999780.70632654603
 17458.095269194891 -12660.478337464985 -999767.43655604124
 17794.690896147757 -13264.793141835778 -999753.66677937959
 18239.601254054935 -13714.588704344716 -999739.57959198742
 18777.229681183111 -14049.7142671168 -999724.97276726703
 19393.196516818069 -14309.372850820369 -999709.53070253169
 20069.100917826778 -14527.23752073672 -999693.04816946993
 20786.804164274097 -14724.043480513523 -999675.50300896144
 21534.501447708946 -14909.886062653293 -999656.92142104299
 22307.01737946771 -15091.495285265231 -999637.25608126819
 23101.425170990864 -15276.532968856587 -999616.40227415273
 23912.502231838451 -15472.646291315541 -999594.31243567797
 24731.242862786174 -15683.350259924904 -999571.10710098397
 25546.860040131342 -15904.728481844315 -999547.09621608572
 26348.213984279111 -16126.770430661061 -999522.73555698327
 27117.338339351198 -16338.007711111275 -999498.73409895843
 27814.75738256082 -16524.661358191497 -999476.5003934541
 28361.887479318077 -16655.844761312295 -999458.94671762153
 28616.378876609229 -16662.925998645253 -999451.57449330878
 28353.478158671649 -16408.685604772876 -999463.27361891081
 27288.337906055025 -15654.31726488584 -999505.02198102791
 25216.049911244834 -14183.975403857392 -999581.39521932683
 22615.950549450583 -12405.183081561487 -999667.25974869134
 0 -0 0
 0 -0 0
 0 0 -0
 0 0 -0
 0 0 -0
 0 -0 0
 -0 0 -0
 19511.387841825657 -8393.5991566637731 -999774.40117142582
 18096.524465769187 -9276.002804268659 -999793.21440697683
 16982.473397578437 -10370.51510637653 -999802.00440573692
 16436.109455039805 -11309.969288909624 -999800.94963981002
 16342.371599503362 -12071.616190236384 -999793.58018195932
 16537.598349182237 -12686.522747821622 -999782.75639331271
 16904.55405680383 -13178.303787069302 -999770.25778997655
 17378.901818126622 -13563.637947385207 -999756.97121711948
 17929.315102284741 -13861.918788380237 -999743.16045045655
 18540.005213818898 -14095.157085232666 -999728.76059129892
 19200.588068867204 -14285.728220157258 -999713.58667721902
 19901.284882658099 -14453.355190351625 -999697.47393086902
 20632.995453346914 -14612.214255323954 -999680.3302522155
 21389.063402845644 -14771.344895189226 -999662.10058035934
 22165.606370237067 -14937.30106846723 -999642.71764017257
 22960.02604953686 -15116.189358241405 -999622.09760643577
 23769.121539447991 -15313.723880762718 -999600.17943283019
 24588.175367108866 -15533.885491582951 -999576.97053986322
 25411.053782144019 -15777.852208184968 -999552.5687653342
 26229.462566616639 -16044.450941191022 -999527.1836660885
 27028.577080033017 -16331.076399396432 -999501.25160735333
 27778.242312080667 -16631.392625136672 -999475.74559535936
 28420.524611909808 -16926.333434118827 -999452.73676010361
 28853.465907834085 -17168.311346228871 -999436.20436255191
 28915.198407891639 -17257.353912608462 -999432.88670974155
 28375.931339591134 -17015.392454206984 -999452.49158738903
 26951.947548126212 -16195.59206836265 -999505.52540789789
 24428.848607211305 -14605.053198182952 -999594.87982722488
 21293.721235199573 -12677.555642291498 -999692.88134851423
 0 0 0
 0 0 0
 -0 0 0
 0 -0 0
 -0 0 -0
 21008.956815003155 -9248.4983873274159 -999736.50979201763
 19033.897638135459 -10043.828295169116 -999768.38930518203
 17256.66001617007 -11002.227570296855 -999790.5574036882
 16207.815151023986 -11776.121138788872 -999799.29470817035
 15796.314162997642 -12356.370303187379 -999798.87806088012
 15820.323716021177 -12798.800714179824 -999792.93259044364
 16112.651957013097 -13148.550087245749 -999783.72565146058
 16562.590934143649 -13431.105732822249 -999772.61713868822
 17106.400327200845 -13660.54892452799 -999760.35151976603
 17710.807865075953 -13848.004923602648 -999747.24808043474
 18359.112013236205 -14004.890793086137 -999733.36747352744
 19042.182311193526 -14143.018735945006 -999718.64557677542
 19753.706399571292 -14273.360086178032 -999702.98702931253
 20488.638380163691 -14404.773661442307 -999686.30989580404
 21243.158979361328 -14543.913990607503 -999668.54645047779
 22014.634514542286 -14696.127014041318 -999649.62847888772
 22801.03966217436 -14866.342540049936 -999629.48358369549
 23600.157021925894 -15059.299338621486 -999608.04823289136
 24408.98173497917 -15279.213189536895 -999585.28763431183
 25223.254109894329 -15529.446407140736 -999561.21560732601
 26036.264910420101 -15812.504113589699 -999535.93113162881
 26835.746837665509 -16129.677715232843 -999509.71790596796
 27598.189875151875 -16478.646594208523 -999483.26355274115
 28280.496447673737 -16847.259791981418 -999458.04482137959
 28808.991763806873 -17202.629702070553 -999436.8972200728
 29066.490918396914 -17475.247139097988 -999424.71194338496
 28877.538253323302 -17540.851969555399 -999429.04015073041
 27991.854797939523 -17209.667857375887 -999459.99589638889
 26083.136860477513 -16243.940914869238 -999527.79068671842
 22876.069976175015 -14499.741390791676 -999633.15417309222
 18909.441927696625 -12539.270405746103 -999742.56671588938
 0 0 0
 -0 -0 -0
 0 -0 -0
 0 0 -0
 19726.596101454634 -10049.213348995323 -999754.90732344834
 18036.4421797293 -11118.055707283575 -999775.51259809674
 16538.559535959717 -11978.308351612492 -999791.4763476979
 15701.528943348691 -12544.748123023874 -999798.02524478454
 15424.386196804551 -12912.201767330405 -999797.66120749223
 15529.540774363415 -13163.914810815178 -999792.75087899657
 15873.619994506629 -13351.197878773084 -999784.86370992439
 16360.669357228286 -13501.278911197542 -999774.99666972342
 16932.970960759158 -13627.854947618018 -999763.75012498267
 17558.487996703912 -13738.931099500411 -999751.43974465621
 18220.365664679954 -13840.890733298476 -999738.18973707035
 18909.707289696027 -13939.881498418557 -999724.01325267181
 19621.331466758864 -14041.795366335842 -999708.87328980013
 20351.748562752196 -14151.865514610101 -999692.7183054277
 21098.403371306518 -14274.563457829645 -999675.49445471051
 21859.339200945811 -14413.88967161839 -999657.1457626021
 22632.85561036993 -14573.744698032211 -999637.61424448062
 23417.097855851578 -14758.109332293685 -999616.84546477383
 24209.641115287825 -14971.000124814376 -999594.7991222901
 25006.943541985358 -15216.343540790696 -999571.46601127868
 25803.25681337513 -15497.761388675244 -999546.90301644313
 26588.41991700148 -15817.849068143931 -999521.31121711177
 27344.10393161864 -16176.076208243116 -999495.18985269871
 28038.251954647923 -16564.36258489003 -999469.59849686467
 28617.484671450795 -16959.670446678436 -999446.55142204545
 28997.024773878715 -17313.452478914536 -999429.5457497359
 29046.804607959777 -17538.89699277145 -999424.16932668979
 28572.103505680945 -17499.013437428308 -999438.55210311804
 27295.199528338369 -17004.733585309001 -999482.77179669344
 24896.70071567838 -15868.711289369137 -999564.07413206331
 21513.17324484231 -14243.75351164643 -999667.09401822207
 -0 0 -0
 -0 -0 -0
 0 0 -0
 20538.751724880276 -10226.315417785909 -999736.7564266905
 18839.129376513927 -10898.671568184973 -999763.12502631545
 17130.513483767627 -11790.301372245463 -999783.74376728793
 15945.727583343682 -12472.196242250908 -999795.06804781395
 15340.070272714069 -12896.62941432176 -999799.15942842129
 15194.279448732259 -13143.561822765771 -999798.16995963978
 15366.121243669575 -13289.597105587694 -999793.61316558521
 15742.019977517879 -13384.564746287535 -999786.49832530727
 16244.056320499856 -13456.237413875333 -999777.50540253578
 16823.401639372492 -13518.853073719078 -999767.07975850615
 17451.479993947349 -13579.781647141526 -999755.48779510928
 18112.401720927337 -13643.521934021805 -999742.86454724742
 18797.513693340352 -13713.614342252937 -999729.25847982487
 19501.932989589077 -13793.302404546497 -999714.66900233412
 20222.615118100002 -13885.645225009144 -999699.07206842501
 20957.395059169168 -13993.554811714874 -999682.43358381838
 21704.517079881189 -14119.919728324436 -999664.71469447913
 22462.330070751577 -14267.772567715932 -999645.87449443736
 23229.014701663466 -14440.396471950342 -999625.87392770255
 24002.268593795463 -14641.337274476145 -999604.68303483154
 24778.840820370224 -14874.308402276583 -999582.29475974233
 25553.683095953114 -15142.914083188292 -999558.75336735498
 26318.426264462316 -15449.908121639921 -999534.21190972498
 27058.891830159497 -15795.530075089413 -999509.03827957995
 27751.377594538131 -16174.385509508025 -999483.9920153775
 28357.327616100658 -16570.478002468462 -999460.49508184299
 28815.571195865617 -16950.249889975908 -999441.01971318107
 29030.278256138929 -17254.014945473038 -999429.60828296083
 28851.187721870858 -17387.236352326945 -999432.48545315245
 28041.307891558972 -17216.459426117784 -999458.49267318717
 26232.162283852093 -16585.347289151417 -999518.2839334216
 22956.27467315234 -15388.529291313578 -999618.02835852304
 18675.566620667822 -13959.334240723452 -999728.14314640185
 -0 -0 0
 0 0 -0
 19494.449391365048 -10571.703491525494 -999754.07252394559
 17887.963613618151 -11421.12989788728 -999774.76390915818
 16389.116996560348 -12184.075126683143 -999791.45083231234
 15473.505157080612 -12712.597702687714 -999799.46014078404
 15068.745457230389 -13027.998818286616 -999801.5823937949
 15040.146332899059 -13197.104662474278 -999799.79517241998
 15269.744735198921 -13281.806849768191 -999795.19327836717
 15668.878961026006 -13324.790556921971 -999788.44571675209
 16176.454311910577 -13351.468634672807 -999780.00610693952
 16753.044098166083 -13375.646188708943 -999770.18739432283
 17374.544189539974 -13404.504353261083 -999759.19324467774
 18026.829597950822 -13441.940341347748 -999747.14185863326
 18701.792398900154 -13490.456831288726 -999734.0899136886
 19394.687202246307 -13552.068554959897 -999720.05458838737
 20102.508975239187 -13628.677686838806 -999705.0306352413
 20823.088305687292 -13722.23318725022 -999689.00129478693
 21554.601090920016 -13834.842020190168 -999671.9443487887
 22295.283412097157 -13968.863596178688 -999653.835678834
 23043.209192886901 -14126.97617380639 -999634.65278784628
 23796.04944447571 -14312.180411672412 -999614.38041011593
 24550.710494981176 -14527.713373140024 -999593.02126332361
 25302.724792771241 -14776.780525203696 -999570.61725291412
 26045.21637562208 -15061.942719958071 -999547.28981947002
 26767.250825115501 -15383.891395153028 -999523.31146842556
 27451.30864198734 -15739.337360084601 -999499.22406838706
 28069.439138452373 -16117.774908949417 -999476.02468415268
 28577.14004005371 -16497.016552504239 -999455.44948836893
 28902.915072793989 -16837.528334051342 -999440.40299554367
 28929.332556056423 -17075.769542583632 -999435.59663061297
 28458.223440993341 -17116.839251798494 -999448.4195458066
 27156.131208351067 -16827.06356046291 -999489.56696392118
 24561.57842888718 -16044.279280749706 -999569.56234543445
 20807.93032356599 -14843.886106683101 -999673.29117112141
 0 0 0
 -0 -0 0
 18048.317636318287 -10873.665933719334 -999777.98616475868
 16834.545880479342 -11752.501911001065 -999789.2161670028
 15736.144162955799 -12429.95832258512 -999798.91473384865
 15096.765652680253 -12841.59361104157 -999803.57127805694
 14865.222697837682 -13066.941732771775 -999804.12090963894
 14934.129179530357 -13176.127955343669 -999801.66104970733
 15211.092191299345 -13219.668830977271 -999796.91089258099
 15627.695531612768 -13231.194787372913 -999790.33332837827
 16136.573815587388 -13231.447111096912 -999782.24618805875
 16706.501354822034 -13232.358022050734 -999772.87296348333
 17317.714897041838 -13240.451858450733 -999762.36535755266
 17958.080822438726 -13259.274161029716 -999750.81844522513
 18620.234710050008 -13290.919815754311 -999738.28490750224
 19299.598481042685 -13336.894417282318 -999724.78850220237
 19993.109621140891 -13398.553921539475 -999710.33520739828
 20698.456309639441 -13477.326350052705 -999694.92125390528
 21413.643039278028 -13574.832157132339 -999678.53824301541
 22136.730963932576 -13692.964343218233 -999661.17653419252
 22865.65529057703 -13833.931362895519 -999642.82828977436
 23598.033048736255 -14000.259099538207 -999623.49191151792
 24330.897172361398 -14194.712363798502 -999603.18005881587
 25060.263965915216 -14420.084220529558 -999581.93478125229
 25780.431436535957 -14678.741415503229 -999559.85508892999
 26482.849367354258 -14971.798133540324 -999537.14485757588
 27154.321324407952 -15297.76347372491 -999514.19262865558
 27774.064749880348 -15650.550863034841 -999491.70160884922
 28308.68727658557 -16016.738543477772 -999470.90118277399
 28703.198049480583 -16371.896612092842 -999453.89459597168
 28864.659078779889 -16675.289045264431 -999444.2286548675
 28633.759628906217 -16860.835841772125 -999447.75752624043
 27745.356433303979 -16820.707417973339 -999473.49089325417
 25828.890604590109 -16394.875507302637 -999531.92868824163
 22825.656362132515 -15526.558545707636 -999618.88507138775
 -0 0 -0
 19200.15761123956 -12034.322330115556 -999743.23155186127
 17560.741690440776 -12051.412003204579 -999773.16618321522
 16188.71277032985 -12399.560834056681 -999792.06661683507
 15297.518587810951 -12738.647709090961 -999801.83675546374
 14842.466279422457 -12966.602534522895 -999805.76534317713
 14730.704235912855 -13091.96192527936 -999805.78458301665
 14867.8387265899 -13145.873664308807 -999803.04729341669
 15177.903002258538 -13157.120595029903 -999798.24036557588
 15605.693724222088 -13147.238263414396 -999791.78454787831
 16113.191523173708 -13130.735338737542 -999783.95108563395
 16675.13664915596 -13116.667685091868 -999774.92109302816
 17275.188450291527 -13110.380998031873 -999764.81523110892
 17902.944709993662 -13114.96188077487 -999753.71084361395
 18551.761446173481 -13132.275872706701 -999741.65436759079
 19217.246911808055 -13163.62945337762 -999728.67133074882
 19896.271528196969 -13210.161033251261 -999714.77433553606
 20586.358973344151 -13273.058207679693 -999699.96886567737
 21285.322328233036 -13353.683722307645 -999684.25724547042
 21991.049685194561 -13453.647012935191 -999667.64132675342
 22701.349284444997 -13574.845560046537 -999650.12494806712
 23413.800826439146 -13719.464467430989 -999631.7172967185
 24125.550532482463 -13889.923400948514 -999612.43881787523
 24832.999650050526 -14088.723878821116 -999592.33189728251
 25531.29756709146 -14318.150684629112 -999571.47988801333
 26213.513748852278 -14579.749824155 -999550.04006402998
 26869.23477753601 -14873.527064463178 -999528.29995710088
 27482.111076047986 -15196.803232699032 -999506.77373508085
 28025.41008149636 -15542.675608829901 -999486.36890388967
 28453.825652837662 -15897.920012029908 -999468.67682034394
 28688.467467639253 -16239.866704094102 -999456.47157031891
 28590.20768258196 -16531.121527935258 -999454.51224440197
 27915.082779521323 -16710.529325662286 -999470.61305626633
 26249.037856467294 -16679.526945788301 -999516.27370067092
 23003.32857576813 -16283.639517016849 -999602.76608186471
 18369.389635837397 -15542.214500684147 -999710.46062988718
 18903.1322173343 -12645.935342824459 -999741.34250398946
 17363.723871910293 -12784.66425153676 -999767.49969844264
 15950.653470207923 -12889.69317073321 -999789.69411763665
 15100.382199165328 -12999.834004334425 -999801.47167990252
 14715.435679334994 -13085.519206761759 -999806.09377011552
 14661.83078563538 -13131.355957672713 -999806.28034070996
 14835.764929049281 -13141.928796655278 -999803.57560196472
 15163.975272963749 -13128.913179026535 -999798.82251013804
 15596.675853657758 -13103.8598652243 -999792.49475025979
 16100.776148434536 -13075.784712345574 -999784.87129060645
 16654.598210681703 -13050.946287720348 -999776.12351937883
 17244.056077254343 -13033.401849397165 -999766.35918910417
 17859.975036344331 -13025.713394038816 -999755.64618674573
 18496.256461133842 -13029.554664659527 -999744.02683995303
 19148.646879762742 -13046.156515166107 -999731.52752269234
 19813.947021269058 -13076.599799459827 -999718.16530516394
 20489.51961136335 -13122.00063165678 -999703.95252070413
 21173.000966027776 -13183.621342838467 -999688.89968748845
 21862.123873527507 -13262.941616983806 -999673.01750092395
 22554.596208783438 -13361.695259753829 -999656.31858636497
 23247.975869402952 -13481.880921160433 -999638.82002691505
 23939.509544572607 -13625.726472328452 -999620.54773842392
 24625.882208871364 -13795.595553405932 -999601.54435092874
 25302.818368144774 -13993.798581885223 -999581.88308106025
 25964.4012645394 -14222.287713746924 -999561.6921426917
 26601.867137629622 -14482.197144513573 -999541.19806572213
 27201.375686116502 -14773.209028704319 -999520.8039134437
 27739.823454950889 -15092.680392996141 -999501.23221196816
 28176.971238165515 -15434.396784432305 -999483.7856052214
 28440.877630190629 -15786.586091218944 -999470.81006861292
 28401.776772266101 -16128.381172726577 -999466.46486859466
 27828.442734535307 -16422.611767400496 -999477.80145319272
 26333.2000235417 -16598.304933230247 -999515.41201217298
 23424.435378425715 -16515.61072545452 -999589.18082858773
 19384.002181189771 -16067.822817619926 -999682.99251779856
 18418.070034190347 -12623.513687728033 -999750.67971889442
 17120.031683184159 -12896.549771782957 -999770.26537057548
 15814.454642562054 -13060.923981301223 -999789.63551794889
 15010.114865277885 -13148.174450135737 -999800.89115801442
 14660.795719159114 -13190.382899628885 -999805.51852239866
 14635.325979723826 -13200.449747552899 -999805.75881514593
 14827.195677328933 -13187.244846871274 -999803.10603723116
 15163.578420234102 -13159.220146450638 -999798.43009210133
 15596.93982911141 -13123.860247498382 -999792.22829554509
 16096.65701735093 -13087.106102893451 -999784.78948557586
 16643.025146686628 -13053.314418865468 -999776.28532419633
 17223.272756921622 -13025.532022693405 -999766.82000907906
 17828.967168508734 -13005.866487402847 -999756.45802696166
 18454.330357471485 -12995.836318468591 -999745.24051352253
 19095.163781179333 -12996.650227415441 -999733.19530914654
 19748.172273259257 -13009.412772865859 -999720.34333165933
 20410.560977172339 -13035.263721886449 -999706.7024384191
 21079.798074791459 -13075.474690382123 -999692.28969455732
 21753.478723100703 -13131.510824711295 -999677.12266856642
 22429.22328917644 -13205.072636451467 -999661.22061391873
 23104.575953979438 -13298.109381800881 -999644.60627607885
 23776.859562692884 -13412.805960950504 -999627.30934363208
 24442.958782214406 -13551.522720233614 -999609.37270412478
 25098.963048391503 -13716.684982129775 -999590.86360720417
 25739.557247641402 -13910.599023083749 -999571.89357620222
 26356.908584591278 -14135.186773141098 -999552.65487354482
 26938.579980702139 -14391.589029711071 -999533.48872052459
 27463.573935017877 -14679.53839739003 -999515.01402387919
 27894.922555647998 -14996.219908182977 -999498.3675244695
 28166.152277927362 -15334.012978491568 -999485.63567058428
 28157.774783379791 -15675.823043111506 -999480.56924142817
 27661.068501804733 -15985.594291398775 -999489.53274383466
 26342.417593024857 -16191.640089930883 -999521.8395945899
 23806.66509307985 -16177.770043414626 -999585.67539434461
 20261.930527492175 -15887.273992209155 -999668.46939192573
 17818.257277145676 -12556.566080341763 -999762.39294938243
 16740.129252785897 -12908.150846769493 -999776.54889195983
 15620.914869178929 -13155.957967723964 -999791.43214402546
 14920.05761571449 -13280.890998869532 -999800.4850043935
 14624.063640672062 -13326.821265700546 -999804.24713920162
 14625.993717370586 -13328.107754354931 -999804.20175725815
 14830.911885707073 -13304.737729310013 -999801.49430104019
 15171.735721946101 -13268.144737907436 -999796.8667536407
 15604.219420735508 -13225.355844848698 -999790.77726244635
 16099.799430046663 -13181.043481993158 -999783.50484044198
 16640.065768907538 -13138.481812139025 -999775.21899018821
 17213.012927955955 -13100.040093233585 -999766.02319517627
 17810.593942646101 -13067.493530586711 -999755.9819057039
 18427.158304058001 -13042.251082932391 -999745.13728426152
 19058.465899572904 -13025.534188869702 -999733.51966243936
 19701.088705765545 -13018.512588991205 -999721.15383929841
 20352.058034374739 -13022.40921873924 -999708.06268225389
 21008.672611634345 -13038.576065667445 -999694.26886887616
 21668.386444917418 -13068.553909152835 -999679.79569840117
 22328.731681595898 -13114.110996444118 -999664.66769325431
 22987.225624960749 -13177.266610642362 -999648.91191994981
 23641.239326979714 -13260.285068267078 -999632.56081571942
 24287.785284944777 -13365.642727952551 -999615.65768070123
 24923.177895532313 -13495.953094717648 -999598.26653193682
 25542.446684369748 -13653.8552392001 -999580.48983285134
 26138.284802117167 -13841.84197357706 -999562.5010365193
 26699.098071123273 -14061.986616132754 -999544.60565529333
 27205.390151740474 -14315.405038020026 -999527.35626659531
 27623.155431965944 -14601.08199401916 -999511.7656579063
 27892.15947975716 -14913.250262576003 -999499.6860460547
 27906.184431547583 -15235.951165645032 -999494.42752951395
 27483.268797745379 -15533.372277888233 -999501.56792366656
 26334.59393586994 -15738.421043328426 -999529.28484626999
 24099.587007835082 -15758.619578002981 -999585.35194101732
 20882.145019256368 -15555.59115512915 -999660.92231476633