# OOMMF OVF 2.0
#
# Segment count: 1
#
# Begin: Segment
# Begin: Header
#
# Title: Oxs_TimeDriver::Magnetization
# Desc: Oxs vector field output
# Desc:  MIF source file: /mnt/gpfs/work/plgrid/groups/plggspinsym/MF/switching-obrazki/p-ap/Anisotropy.mif
# Desc:  Iteration: 4700, State id: 32973
# Desc:  Stage: 0, Stage iteration: 4700
# Desc:  Stage simulation time: 6.9147e-10 s
# Desc:  Total simulation time: 6.9147e-10 s
# meshunit: m
# meshtype: rectangular
# xbase: 1.0000000000000001e-09
# ybase: 1.0000000000000001e-09
# zbase: 3.4999999999999998e-10
# xnodes: 35
# ynodes: 35
# znodes: 5
# xstepsize: 2.0000000000000001e-09
# ystepsize: 2.0000000000000001e-09
# zstepsize: 6.9999999999999996e-10
# xmin: 0
# ymin: 0
# zmin: 0
# xmax: 7.0000000000000005e-08
# ymax: 7.0000000000000005e-08
# zmax: 3.4999999999999999e-09
# valuedim: 3
# valuelabels: Magnetization_x Magnetization_y Magnetization_z
# valueunits: A/m A/m A/m
#
# End: Header
#
# Begin: Data Text
 -0 0 -0
 0 0 -0
 -0 -0 0
 -0 0 0
 0 0 0
 -0 0 -0
 0 0 0
 0 -0 0
 -0 0 0
 0 0 0
 0 0 0
 -0 -0 0
 0 0 0
 1273.5430959037096 -35096.50669984187 -999383.11638002505
 4091.8758482276262 -34822.14153793102 -999385.14848418441
 6802.9121067908891 -34583.461106157505 -999378.65927024186
 8886.6009902884798 -34516.211831162203 -999364.62787296297
 10564.04460450536 -34621.492877914738 -999344.66186221177
 12159.724457525401 -34874.876236576085 -999317.70929399645
 14006.7051769589 -35254.517203838914 -999280.20656210848
 16384.518428349649 -35720.310251450996 -999227.5051215369
 18974.582972694247 -36120.317015729284 -999167.29725291533
 0 0 0
 -0 0 -0
 -0 0 -0
 -0 0 0
 0 -0 0
 -0 0 0
 -0 -0 0
 0 0 0
 0 -0 0
 0 -0 -0
 0 -0 0
 -0 -0 0
 0 0 -0
 -0 -0 -0
 -0 -0 -0
 -0 -0 -0
 -0 0 -0
 0 0 -0
 0 0 -0
 -0 -0 0
 0 0 0
 0 0 -0
 0 0 0
 -3580.9748734970035 -32662.845091384341 -999460.01179111283
 -1067.4228678174763 -31888.088029347298 -999490.87562131055
 802.15641544367202 -30650.918968343391 -999529.82832503878
 2372.8635119107462 -30168.008579492416 -999542.02551823785
 4871.9371192948101 -29094.110165765651 -999564.80379331484
 7217.0176249902397 -28451.570454697325 -999569.1185682267
 9086.1184211120217 -28206.07562689191 -999560.83344125072
 10634.88577509111 -28236.669107726688 -999544.69120807783
 12124.435570233461 -28480.468812770148 -999520.81567034335
 13834.081762329271 -28937.792443459897 -999485.47880911839
 16007.006968785307 -29674.87284206691 -999431.42718733277
 18564.753847405082 -30748.948675573971 -999354.71784043324
 20641.05193821694 -31423.865732377744 -999292.99388983869
 22413.984254857278 -33259.623570371317 -999195.3816695615
 24590.998654148218 -34475.218487999497 -999102.96871513524
 -0 0 -0
 0 -0 0
 -0 0 -0
 0 -0 -0
 -0 0 0
 -0 0 0
 -0 0 -0
 -0 0 0
 -0 0 -0
 -0 0 0
 0 -0 -0
 -0 0 -0
 -0 0 0
 -0 0 0
 -0 -0 0
 0 0 -0
 0 -0 -0
 -0 -0 0
 -8621.1117131255778 -29970.201880098281 -999513.61343010026
 -5722.4814213316695 -29005.222222233562 -999562.87960799225
 -2797.0615533741752 -28155.484544109037 -999599.64242528251
 131.79116244194492 -26459.645137287298 -999649.87361090491
 2356.4920926374516 -24811.239214301466 -999689.37643333385
 4172.7381822796833 -23416.746824488626 -999717.08209083823
 6093.8790763084899 -22204.592952730847 -999734.87519922364
 7877.4150014700863 -21454.674193135768 -999738.78752810252
 9386.2162473193948 -21121.52330907085 -999732.8544154499
 10698.567087689853 -21096.682786586054 -999720.19617374544
 11981.814721823461 -21320.79716794044 -999700.88512719423
 13421.948725773547 -21804.169030380457 -999672.16101344791
 15162.674843653598 -22629.648451990022 -999628.92730378942
 17170.132294939151 -23898.901341719466 -999566.92075700127
 19170.352372171958 -25497.23978258127 -999491.06466911256
 21335.740153902814 -27492.343807511657 -999394.29517285852
 24135.54574675348 -29438.419682038279 -999275.16474599252
 27156.542217092509 -30577.756276079195 -999163.41157787177
 29843.744752556409 -32094.187503569334 -999039.19544111495
 -0 0 -0
 -0 -0 -0
 0 0 -0
 -0 0 0
 -0 0 -0
 0 0 -0
 0 -0 -0
 -0 -0 -0
 -0 -0 0
 0 0 0
 0 0 0
 0 0 -0
 -0 0 0
 0 0 0
 -0 -0 -0
 -11152.209535894855 -26984.811786989329 -999573.63318331295
 -7847.8281160793622 -26115.305098890294 -999628.13207384897
 -4002.7795905339522 -24076.81465041831 -999702.09800311958
 -735.00907010561014 -22076.659984915324 -999756.01065738883
 1969.4159827251781 -20170.163469327163 -999794.62186306412
 4056.0295786726601 -18563.543616849285 -999819.45543805184
 5718.3882601627192 -17263.888131627031 -999834.61542511359
 7204.5035659016912 -16258.857162961898 -999841.85984190693
 8533.1319746699282 -15613.329168201883 -999841.69227482635
 9695.3189955311227 -15301.648934479312 -999835.91670306621
 10747.857888700286 -15263.524732950533 -999825.73899831693
 11793.865370728965 -15462.5575551779 -999810.88914527732
 12947.557599722833 -15907.960983631807 -999789.62663629651
 14295.84667141504 -16653.160611978768 -999759.12149356212
 15854.202450201059 -17758.613577566291 -999716.59779583081
 17596.658359993242 -19215.443517339725 -999660.50454391446
 19665.187523934099 -21014.257359212599 -999585.75489414064
 22297.525765853472 -23079.952310615488 -999484.93542727327
 25492.410547133382 -25269.391386232965 -999355.58979947958
 29210.715421485307 -27527.159516691554 -999194.17011585284
 32634.85903332118 -28511.363133381081 -999060.59283116134
 -0 -0 -0
 0 -0 0
 -0 0 -0
 -0 -0 -0
 0 -0 -0
 0 -0 -0
 0 0 -0
 0 -0 -0
 -0 0 -0
 0 0 -0
 -0 0 0
 -0 0 0
 -0 0 -0
 -12372.120370812032 -25187.455403129465 -999606.18381833017
 -9421.4499966284693 -23699.521129675457 -999674.73158932326
 -5370.1194212275523 -21176.116959046252 -999761.33846430492
 -1605.1921198866412 -18680.272417150722 -999824.21994102502
 1409.3639529347217 -16582.697401254376 -999861.50432954798
 3743.174405809923 -14860.983496763705 -999882.56301171519
 5522.4035949571244 -13496.511174743398 -999893.66796907177
 6912.9891076811764 -12443.592202785931 -999898.67866433749
 8070.7625798525532 -11669.757619678128 -999899.33470748819
 9070.5433821202441 -11170.441824767759 -999896.46787664597
 9954.5017699958116 -10923.332808561257 -999890.78838384361
 10775.679175247387 -10896.360431221154 -999882.57013894629
 11603.28706330738 -11070.390943615501 -999871.39681745181
 12510.779328588522 -11451.646981147682 -999856.15974599589
 13559.721589291621 -12070.017016213184 -999835.210742075
 14790.660580698506 -12960.928970783641 -999806.60663940443
 16249.075157553178 -14142.016323543139 -999767.95854379563
 18048.880339546708 -15630.213653714045 -999714.92653637391
 20352.769467352584 -17444.14823394475 -999640.66867419961
 23295.442002143962 -19604.138373124177 -999536.39260437747
 26982.552532974325 -22128.182531381241 -999390.95723178482
 31126.526149422571 -24685.9346661077 -999210.56039231794
 34397.061798662056 -26351.748854833702 -999060.7726619594
 0 -0 -0
 -0 0 -0
 0 0 0
 0 0 -0
 0 -0 0
 -0 0 0
 -0 0 0
 0 -0 0
 -0 -0 -0
 -0 -0 -0
 0 0 0
 -13134.492058109603 -24014.670003061663 -999625.32017902576
 -10327.519216525116 -22252.400141921171 -999699.04122928716
 -6369.8910176385434 -19357.855090330857 -999792.32740340894
 -2487.0059970933894 -16503.784379946988 -999860.71025033807
 777.41002076346899 -14115.248203988087 -999900.07270816783
 3320.4951226132616 -12240.445864111023 -999919.56966407469
 5247.2052955424542 -10792.852382133482 -999927.98799415759
 6700.0916131816266 -9691.2040586659841 -999930.59225941682
 7818.3572976458972 -8870.5201246293745 -999930.09113731794
 8718.1493591306353 -8287.1892376748074 -999927.65556628688
 9476.8928550479195 -7916.231614460733 -999923.75798299757
 10148.392535614179 -7735.9650883064487 -999918.579171872
 10781.714256857165 -7726.8595564750713 -999912.0212694105
 11428.321799760201 -7878.5867841641812 -999903.65602448198
 12140.30824209644 -8195.1579634547124 -999892.72039641358
 12966.271363899546 -8693.9520897048515 -999878.13807682553
 13952.414616441387 -9398.6655211087364 -999858.48759351624
 15157.307137313221 -10333.187418213771 -999831.72648107412
 16674.340582927012 -11528.681258658686 -999794.50682355755
 18630.658975008435 -13031.993744140649 -999741.49943133269
 21168.704468984317 -14912.443798377028 -999664.69627123734
 24421.708695409179 -17256.111129254412 -999552.80339414359
 28372.157053102615 -20064.208936125295 -999396.04172916419
 32568.583684558089 -23040.706116471458 -999203.88971342414
 35770.058175003884 -25104.157217881337 -999044.68580165983
 0 -0 0
 0 0 0
 0 -0 -0
 0 -0 0
 0 -0 -0
 -0 -0 0
 0 -0 -0
 0 -0 0
 0 0 -0
 -14065.796620347799 -22872.535408079606 -999639.43524124811
 -11143.14692721047 -21142.63290743182 -999714.36888258252
 -7136.1105766145338 -18168.152476176903 -999809.4789315816
 -3206.3297176461147 -15144.040200028989 -999880.18156985287
 164.71086547783591 -12558.270736196178 -999921.12824284658
 2857.1956922545455 -10512.278989624192 -999940.66245113779
 4918.3433927149099 -8951.8921405037236 -999947.8354021156
 6464.6305598983618 -7779.9446844129188 -999948.83919750177
 7621.6703803795708 -6910.6290013758207 -999947.07527319575
 8501.9819694923717 -6279.5305900529247 -999944.14033892856
 9196.7964387601405 -5842.6581038092318 -999940.63937893137
 9773.7581028919467 -5571.5846960125627 -999936.71354567318
 10283.791099903827 -5446.3902233205272 -999932.28794461314
 10770.112511191932 -5453.22914769196 -999927.13082922145
 11273.604273200279 -5585.7136184555093 -999920.8496926463
 11834.437113850585 -5846.473237359839 -999912.8786293749
 12492.709674262067 -6246.7150066129207 -999902.45062036987
 13291.70939330645 -6804.0725543210365 -999888.51131417626
 14286.228503397924 -7541.9352436570871 -999869.50292922196
 15552.642627785081 -8493.9674890830302 -999842.9715828317
 17192.031180059883 -9711.1328059291827 -999805.04497803457
 19325.962820913144 -11268.433735640303 -999749.73346442566
 22082.075788870505 -13263.85799150542 -999668.17094475694
 25542.154419596616 -15784.031958440019 -999549.12969935616
 29638.323339975243 -18810.605070464178 -999383.67553531611
 33945.700669292833 -21971.719596311566 -999182.13201800804
 37273.614411581773 -24127.99806883448 -999013.77236647101
 0 -0 0
 0 -0 0
 0 0 -0
 0 0 -0
 0 0 -0
 0 -0 0
 -0 0 -0
 -15831.442776166587 -21190.760788799427 -999650.09732246667
 -12459.607898302624 -19849.150465872659 -999725.34698126139
 -8125.625773419024 -17097.084445626733 -999820.81590115407
 -3977.38781719195 -14143.328132806078 -999892.06750302762
 -451.39987659116696 -11524.390695886575 -999933.49011683802
 2374.4202481978964 -9395.3293224965364 -999953.04385526385
 4557.6279129928389 -7744.4801114285137 -999959.62471272319
 6203.0709043851066 -6498.8587846223772 -999959.6425585649
 7426.2800446140573 -5574.2529178750583 -999956.88810523564
 8334.2487206872029 -4898.3739627878285 -999953.27202363929
 9017.8530662433586 -4416.5221756176297 -999949.58505814068
 9550.0704177579282 -4090.2846732259868 -999946.03140684962
 9987.3158409091247 -3893.8773022859427 -999942.54397032678
 10373.736736428791 -3810.157724837044 -999938.93227748421
 10746.288706333318 -3828.4672271627605 -999934.92794167902
 11138.567600485214 -3944.2709877203356 -999930.1850820313
 11583.170271030818 -4159.3439755654153 -999924.26214397128
 12113.711820374911 -4481.6060065090942 -999916.58311757958
 12768.026694395288 -4924.811441385471 -999906.35747883795
 13593.294872222697 -5509.408511142864 -999892.4285903828
 14651.751479323686 -6265.8015393048854 -999873.02489349036
 16024.279711698613 -7239.2846261271561 -999845.39565766021
 17810.906508174034 -8494.9044215296035 -999805.28514717601
 20126.161870986685 -10118.108323626268 -999746.24855124822
 23082.494259016348 -12201.810573716984 -999659.09903201764
 26755.25530675886 -14806.897921373316 -999532.34669390065
 31101.011247049031 -17861.786546539344 -999356.63488105021
 35734.192850045743 -20933.354666356834 -999142.06303396518
 39482.570193837324 -22844.041962378327 -998959.09645876382
 0 0 0
 0 0 0
 -0 0 0
 0 -0 0
 -0 0 -0
 -18967.525218711147 -18268.158236818032 -999653.19355350046
 -14956.135603040791 -17903.817273009889 -999727.84663371148
 -9910.1456848257658 -15775.461824147127 -999826.44684802217
 -5213.2504308423268 -13155.544108143211 -999899.87182675651
 -1312.5231421270196 -10687.773002752183 -999942.02271493897
 1764.3163088660604 -8600.9123634266889 -999961.45500438102
 4122.8628326009093 -6934.1691132954884 -999967.45912093145
 5895.7000432991344 -5649.0853317414176 -999966.66372230346
 7208.9668845351716 -4681.4450077734446 -999963.05675214657
 8173.1302788910325 -3965.8299832067692 -999958.73521560314
 8880.6788521180679 -3446.6289830077512 -999954.62611649511
 9406.6922686782909 -3081.0376351026439 -999951.00947379111
 9810.750822295211 -2838.1934707881665 -999947.84555301943
 10139.630142762942 -2696.870914564101 -999944.95587899152
 10430.667928791052 -2643.0756262919172 -999942.10598303773
 10715.18182331977 -2668.4360985471026 -999939.03030498885
 11021.321607861899 -2769.4920194270017 -999935.42810722056
 11376.315156041246 -2947.4780783866995 -999930.94352882565
 11808.607870534821 -3208.2854037873703 -999925.12903963344
 12350.547551025247 -3562.7210222663148 -999917.38208419352
 13041.900822004178 -4027.5857715462266 -999906.83934844728
 13933.756398940943 -4627.9860014810629 -999892.21027978044
 15091.991388286828 -5400.5685954205255 -999871.52457442344
 16599.88086964696 -6396.6524578857016 -999841.75087483029
 18559.268043440185 -7683.0583303592302 -999798.24173899414
 21088.804827513144 -9336.5553232358743 -999734.01014752081
 24316.537241704758 -11425.517182376625 -999639.01663234818
 28354.044258865768 -13964.310567193677 -999500.39830134599
 33207.853414046382 -16806.493171114642 -999307.15010897443
 38513.554505486718 -19399.793914034119 -999069.74436995434
 42943.682068556067 -20445.330836273071 -998868.27390671999
 0 0 0
 -0 -0 -0
 0 -0 -0
 0 0 -0
 -17937.001636115496 -15756.132785888611 -999714.9635030675
 -12902.599537409891 -14240.719264547106 -999815.34537133703
 -7390.0972147849161 -12068.215832325479 -999899.86730161146
 -2782.259544666922 -9873.5157039039132 -999947.3849755649
 789.48188984211095 -7932.937109016767 -999968.22210866783
 3476.5051506144937 -6329.7827399052712 -999973.92354121094
 5466.4228370802211 -5059.0076606232906 -999972.26194672834
 6923.9751163412957 -4079.9135134890785 -999967.70591570134
 7982.1180208220312 -3341.7153558887157 -999962.55866426392
 8745.6499989294534 -2795.7971261004163 -999957.84767385351
 9296.5989058874966 -2401.0988906338002 -999953.90292397991
 9699.000693839087 -2125.5841914403891 -999950.70442366588
 10002.84994545633 -1945.6658464486864 -999948.07734071009
 10247.467928401511 -1844.8045280705487 -999945.79157937819
 10464.523934464865 -1812.0314822631672 -999943.60355008638
 10680.709135813604 -1840.8395074017542 -999941.26515624125
 10919.999421638209 -1928.5491975994246 -999938.51526512578
 11205.601039669542 -2076.0455561718782 -999935.06016150292
 11561.85695824351 -2287.7926949667471 -999930.54232194636
 12016.438211675626 -2572.1944340324658 -999924.49166349473
 12602.999648760207 -2942.501354758951 -999916.24953574501
 13364.244576912211 -3418.3897948084946 -999904.85126240854
 14355.270597217992 -4028.0248021145317 -999888.84443335724
 15647.2609383333 -4810.0172165588083 -999866.00450235535
 17331.714133622729 -5814.1181313594507 -999832.88989487896
 19525.263621335125 -7098.6845856438704 -999784.16308604868
 22373.989579893678 -8721.6696727822691 -999711.62695469207
 26049.772987945402 -10718.365131743634 -999603.18425672268
 30707.463425694739 -13050.378827062401 -999443.21464624978
 36275.318800978581 -15489.292213345188 -999221.78872991807
 41500.779573257962 -17368.681679362522 -998987.49451208499
 -0 0 -0
 -0 -0 -0
 0 0 -0
 -21374.447175013804 -13303.542707308434 -999683.0241428517
 -16920.725508688694 -12930.302364968622 -999773.22245047649
 -10800.790154827615 -11103.849147648187 -999880.0165350528
 -5224.4194154172055 -9119.3745134560268 -999944.76969993475
 -849.53055497278774 -7332.0159024443883 -999972.75954930007
 2405.6212589549041 -5827.6750140223485 -999980.12539764482
 4775.7742223395489 -4610.5851320201664 -999977.96699993219
 6482.7692683747355 -3653.0156073647654 -999972.31420654093
 7702.7655740691443 -2916.012562693415 -999966.08156139252
 8568.7410483950352 -2359.5999166680676 -999960.50370256056
 9179.9732961095633 -1947.7612761827666 -999955.96618865861
 9610.8780991699059 -1650.5458217939427 -999952.45222993137
 9917.7906692855377 -1444.4814143697217 -999949.77418952587
 10143.939824017232 -1312.0586202851184 -999947.68812524574
 10323.153804318479 -1240.8227233092514 -999945.94496627781
 10482.738277765266 -1222.4390181952435 -999944.30736968888
 10645.787468006372 -1251.9517024612626 -999942.54826270929
 10833.090265985407 -1327.3141832040578 -999940.43942244293
 11064.798001902302 -1449.1787321901502 -999937.73312450771
 11362.060786229355 -1620.929918360177 -999934.13591140602
 11748.846071234841 -1848.9997896488228 -999929.27040654852
 12254.106576813361 -2143.5404543717241 -999922.61805917975
 12914.415483484192 -2519.4820313150421 -999913.43129443668
 13777.22943788372 -2997.8593946741298 -999900.59545340098
 14905.110833419694 -3607.0934554471737 -999882.40635979152
 16381.44363641467 -4383.6629525714243 -999856.20556333265
 18318.231368158522 -5371.2841361706569 -999817.77925093495
 20865.826493399076 -6617.2162040777048 -999760.38615983177
 24220.531828818697 -8163.1376060675202 -999673.31114837399
 28611.149493125547 -10025.14887643878 -999540.34361534764
 34188.894847877847 -12146.704382029868 -999341.57175699272
 40541.726317853383 -14234.588621830469 -999076.4459809548
 45668.735028588781 -15100.657743965186 -998842.49848341383
 -0 -0 0
 0 0 -0
 -20621.256156587508 -11170.780386686996 -999724.95090403594
 -15180.545783988215 -10182.61304652119 -999832.91875255085
 -8798.1746901271708 -8506.762792299618 -999925.11075025878
 -3412.277263884801 -6839.146809105604 -999970.79079081025
 673.2861711307321 -5410.8543913803605 -999985.13455975277
 3641.3121603388417 -4249.2712290750769 -999984.34214730212
 5755.5465727419823 -3328.0755699837146 -999977.89855408773
 7245.5397702771634 -2610.3112969195945 -999970.3437744393
 8287.1564545860892 -2059.7655003387636 -999963.53953730781
 9009.5043376631365 -1644.2644756114557 -999958.06173355295
 9506.4199328685972 -1336.6820790703939 -999953.91956883681
 9846.4817991484724 -1115.0782954477793 -999950.90049290622
 10080.516932429049 -962.37703806504192 -999948.7271899553
 10246.961419231871 -865.78892810940431 -999947.12369765074
 10375.677623727584 -816.14217425699735 -999945.83814614674
 10490.737667644065 -807.25399907995325 -999944.64484998852
 10612.531473093795 -835.4327811179727 -999943.33650852472
 10759.448713523892 -899.15176071002975 -999941.71119595377
 10949.334981636499 -998.90178169324565 -999939.55530256452
 11200.908950260946 -1137.227540968378 -999936.62116766581
 11535.32086897813 -1318.9685117939352 -999932.59607561259
 11978.027558465501 -1551.7338417870837 -999927.05682859325
 12561.178759265656 -1846.6144074040433 -999919.40015353623
 13326.793686607845 -2219.0727044052983 -999908.73197825765
 14331.169796509055 -2689.8717692397645 -999893.6854296705
 15651.162999484537 -3285.8232186737409 -999872.11405386194
 17393.052077332468 -4040.0532218849471 -999840.56714528229
 19704.105740606701 -4991.3304607902692 -999793.39607600635
 22783.880079473867 -6181.3778231872211 -999721.30385259422
 26880.566360025106 -7646.2600422136429 -999609.4086489639
 32216.022619567921 -9384.5507112157211 -999436.87048983946
 38643.56998188256 -11231.370018574504 -999189.93731250172
 44439.883780086624 -12526.672874909475 -998933.52090932324
 0 0 0
 -0 -0 0
 -19183.244842869215 -9615.8424971735149 -999769.74283600319
 -13369.612959030041 -8138.4004410093166 -999877.50244096783
 -7055.4013338811274 -6509.7718609656213 -999953.92102953221
 -1936.7533824013435 -5099.5115050699987 -999985.12187369331
 1863.8092001582586 -3962.4021777088192 -999990.412746166
 4582.8131189788055 -3068.9688046969836 -999984.78951151681
 6491.1917004461102 -2375.1005563056456 -999976.11137849477
 7814.2820265168448 -1840.8259369941015 -999967.77365887142
 8721.9114429052224 -1433.3923348387318 -999960.93606060266
 9337.365910569617 -1126.6184199750141 -999955.77118629997
 9749.196748914359 -899.79157002892521 -999952.07062032796
 10021.284413021818 -736.73773143463495 -999949.51426370931
 10200.379710551226 -625.06951877007089 -999947.77940743347
 10321.477431707346 -555.54895229499812 -999946.57780752867
 10411.594198782079 -521.53880848303515 -999945.66187543992
 10492.454116218269 -518.54850009343477 -999944.81823452259
 10582.46050750006 -543.89007996687769 -999943.85628053546
 10698.228566631182 -596.4548549396676 -999942.59442587127
 10855.890383829979 -676.6149921401767 -999940.84416835732
 11072.352775561852 -786.25565442062725 -999938.39050516498
 11366.679102244096 -928.94945335139209 -999934.96571482078
 11761.777205786546 -1110.2867093660598 -999930.21149497444
 12286.6189788297 -1338.3645748565732 -999923.62097028876
 12979.310051761768 -1624.4179819843457 -999914.44572863332
 13891.475882244886 -1983.5590137914435 -999901.54134867294
 15094.598417404255 -2435.5946810686869 -999883.10365620593
 16688.98988807639 -3005.9243810725015 -999856.21067988116
 18815.581288377707 -3726.531574286962 -999816.02650848043
 21668.22889066787 -4636.7998041210658 -999754.46382815309
 25495.281908208373 -5782.1101834056817 -999658.22049450898
 30547.772227582594 -7200.5220711619386 -999507.37170559901
 36810.375835003368 -8861.0171457205906 -999282.9822457846
 42811.49358353101 -10422.68124423267 -999028.80025193887
 -0 0 -0
 -23121.095987327164 -8400.1770939747184 -999697.38018319069
 -18420.590370887116 -7863.6731380363653 -999799.40212782973
 -11771.489386353489 -6311.3709531071036 -999910.79533842369
 -5604.0183922378137 -4869.9137029665189 -999972.43907939037
 -766.03895920287141 -3725.9291783056051 -999992.76529186498
 2778.7665739332888 -2846.1515350427671 -999992.08890759107
 5291.0101702841821 -2174.1207739035763 -999983.63907127932
 7036.9851106747783 -1661.5004842299475 -999973.85978669103
 8232.9549971879405 -1271.2128019834756 -999965.30063299031
 9040.7620461855204 -975.52446530771044 -999958.65563214233
 9577.4677381727906 -753.66993976599792 -999953.85098180722
 9926.8023051839536 -589.99596723798027 -999950.55402792396
 10148.832593630388 -472.67431875718552 -999948.38755606522
 10287.238695793068 -392.82122428889801 -999947.00780166418
 10374.522979597525 -343.87399895171865 -999946.124060501
 10435.669598324543 -321.13186979786047 -999945.49535180023
 10490.724524949439 -321.41447856736858 -999944.91917888867
 10556.662466740816 -342.8183100433846 -999944.21812077565
 10648.814579228865 -384.56345293823665 -999943.22581785021
 10782.067568251388 -446.92858029478526 -999941.77194164554
 10972.010633935219 -531.27647269905424 -999939.66454379552
 11236.197715047094 -640.17658468042941 -999936.66701189056
 11595.709402410343 -777.63321030368354 -999932.46512454282
 12077.247821678249 -949.4268473783801 -999926.61664429912
 12716.087488779656 -1163.576706702828 -999918.47028056509
 13560.335246947232 -1430.9437535800187 -999907.03053232131
 14677.094178865927 -1766.0292564436588 -999890.72605316713
 16161.170431827337 -2188.0931839758841 -999867.00556548603
 18146.575243353687 -2722.8064190009263 -999831.62989182421
 20819.291444889823 -3404.6622046534089 -999777.45792701538
 24423.756658527393 -4279.9388256572693 -999692.53384945006
 29236.224835663936 -5407.735359575192 -999557.90205252205
 35413.663810286314 -6844.0891931464248 -999349.30372650397
 42427.679753720746 -8503.1607535688636 -999063.3554724718
 48076.964083068997 -9477.3209816498238 -998798.67136053299
 -23012.181515509597 -5768.2035265921759 -999718.54405626259
 -17390.720380458322 -5331.918449146372 -999834.55305880494
 -10488.477526265651 -4365.1434207725233 -999935.4665987686
 -4496.1014972933308 -3385.6360161084749 -999984.16114461143
 108.37757107013631 -2578.0931599816049 -999996.67083943856
 3451.5508793310546 -1952.4822342173509 -999992.137273915
 5805.2957158267154 -1476.5764285029309 -999982.05897091096
 7429.5926136304379 -1116.1337416280503 -999971.77730127273
 8532.1929871497978 -843.51772667785212 -999963.24440485029
 9267.792877611686 -637.99657743084299 -999956.84955679206
 9748.0743668060404 -484.30451635098945 -999952.36911328661
 10052.800411411303 -371.19833223823781 -999949.40042768489
 10239.071460152569 -290.36582910506849 -999947.53717548563
 10348.295725902217 -235.66636354417795 -999946.42718344391
 10411.195201508106 -202.61064286920001 -999945.78151187941
 10451.329313187145 -188.00042630370521 -999945.36569325987
 10487.574901855563 -189.67722239885191 -999944.98588433815
 10535.91028050645 -206.3518409254647 -999944.47446519707
 10610.767691962543 -237.50080579280171 -999943.67601498147
 10726.159347018955 -283.32396219480779 -999942.43295961525
 10896.74916093267 -344.76293612602001 -999940.56923211284
 11139.034667291393 -423.58402428572555 -999937.86931151641
 11472.821912157446 -522.5319990581753 -999934.04848403961
 11923.224704604248 -645.56464635323243 -999928.70743815089
 12523.502671350992 -798.18512029337251 -999921.25929062744
 13319.168782052247 -987.90656590543279 -999910.80791417207
 14373.921896397482 -1224.9167486906226 -999895.93955984979
 15778.005693158962 -1523.0581403697674 -999874.35952235898
 17659.296210078024 -1901.2695031803496 -999842.25477404217
 20196.010312805745 -2385.5184604291708 -999793.19385016803
 23625.157055802931 -3010.5169027329962 -999716.35414354759
 28225.808466952636 -3817.2877772442403 -999594.28372235736
 34209.310599892226 -4829.1190657438883 -999403.02314798383
 41309.537579005286 -5941.3587097044874 -999128.7316265566
 47518.458570150593 -6665.4490584871119 -998848.12052882463
 -22849.370988239243 -3330.0510876384596 -999733.37295760785
 -16798.33960579853 -3112.7657851119561 -999854.05258750403
 -9715.0838851259541 -2631.1982662640803 -999949.34568746446
 -3782.4176797331352 -2086.1215664807378 -999990.67066313466
 690.09096497293763 -1602.1444919875103 -999998.47845258575
 3904.1901087814244 -1213.160636459834 -999991.64273551037
 6151.7448603367147 -912.95454943103618 -999980.66108758515
 7693.4097769586315 -684.79999663847775 -999970.1708025937
 8732.6310733622504 -512.4153270306183 -999961.73856056575
 9419.4746697420815 -382.74654183576268 -999955.5625136703
 9861.8523077351274 -285.98725995748521 -999951.32985578245
 10136.693521861058 -214.92159668139507 -999948.59930555988
 10299.00343683418 -164.26266077494316 -999946.9503658613
 10388.62250077052 -130.14427245657004 -999946.02833603218
 10435.072327084908 -109.76276627320664 -999945.54712627409
 10460.967383582012 -101.13130572565643 -999945.27746965166
 10484.415446945994 -102.91325086404346 -999945.03171004262
 10520.740629696837 -114.31255016930511 -999944.64894275204
 10583.784195673865 -135.0088487072702 -999943.981073295
 10686.982446765258 -165.13159338581877 -999942.87893746176
 10844.389937942118 -205.27184807438158 -999941.17680508702
 11071.809473309289 -256.53365840936988 -999938.67273221747
 11388.208941811674 -320.62964854419431 -999935.10084091267
 11817.651553175876 -400.02930209601624 -999930.08910039545
 12392.044029415441 -498.17542882429029 -999923.09157555457
 13155.115218816074 -619.79696358091371 -999913.2756370944
 14168.157431454149 -771.3641082793398 -999899.32908888871
 15518.125470830148 -961.74188628281922 -999879.12411171768
 17328.482864975365 -1203.0485803465738 -999849.12679649424
 19772.092155142062 -1511.4506854770545 -999803.37061275891
 23081.637610304719 -1906.6442466952833 -999731.76538156613
 27540.897682899136 -2405.8148653578073 -999617.78245970269
 33400.649558921468 -3000.6770214863586 -999437.53809152823
 40520.784155273992 -3599.4008233721765 -999172.21256655979
 46983.856704681071 -3969.94059808662 -998887.75985132658
 -22735.921111470321 -1494.2154506242498 -999740.38890674
 -16518.877050574076 -1409.4467443635883 -999862.56063564192
 -9333.0253849031378 -1216.9535560633785 -999955.70584961784
 -3403.9535870064524 -982.59107786419679 -999993.72378768015
 1012.8067147855743 -762.20638966767149 -999999.19663166639
 4161.0813892921851 -578.89572783074016 -999991.17510176473
 6350.2128783874805 -434.98159320998002 -999979.74258852506
 7844.9268968528077 -324.84811592996857 -999969.17532276199
 8847.7175398597701 -241.48370289355074 -999960.82902279531
 9506.474140411874 -178.79420106657494 -999954.79646934627
 9927.0391323053045 -132.0590788262254 -999950.71701282624
 10184.700854386117 -97.773922060290332 -999948.12980912509
 10333.233640971015 -73.373577414636728 -999946.60802406794
 10411.56128015293 -56.9905064619998 -999945.79660289176
 10448.511364007318 -47.276686624503981 -999945.41169765417
 10466.157805263427 -43.280241512050338 -999945.22733378527
 10482.171390648147 -44.362381979184342 -999945.05954823166
 10511.505506823321 -50.143554061437349 -999944.75134259474
 10567.666500874682 -60.472005384439804 -999944.15882481297
 10663.764082660375 -75.411423298635881 -999943.13760768739
 10813.50720012391 -95.246654934409946 -999941.52778555383
 11032.304770475303 -120.50831775292488 -999939.1350123249
 11338.64887488497 -152.01874247433014 -999935.70389900252
 11756.003254883146 -190.96401069243834 -999930.87757115369
 12315.494872115254 -239.0006602374697 -999924.1328544576
 13059.811232228132 -298.41153774887755 -999914.67250017531
 14048.82789473209 -372.33087526506654 -999901.24102558428
 15367.576721390667 -465.0524015810899 -999881.80367080169
 17137.046795165759 -582.37771237810534 -999852.98042429215
 19527.4725509624 -731.74923496718998 -999809.05294902634
 22770.600509318498 -921.29428075814133 -999740.29176046164
 27156.516926808679 -1155.4883299167936 -999630.52596202947
 32961.369241512941 -1423.2276867241558 -999455.61310179054