# OOMMF OVF 2.0
#
# Segment count: 1
#
# Begin: Segment
# Begin: Header
#
# Title: Oxs_TimeDriver::Magnetization
# Desc: Oxs vector field output
# Desc:  MIF source file: /mnt/gpfs/work/plgrid/groups/plggspinsym/MF/switching-obrazki/p-ap/Anisotropy.mif
# Desc:  Iteration: 16800, State id: 117750
# Desc:  Stage: 0, Stage iteration: 16800
# Desc:  Stage simulation time: 2.47285e-09 s
# Desc:  Total simulation time: 2.47285e-09 s
# meshunit: m
# meshtype: rectangular
# xbase: 1.0000000000000001e-09
# ybase: 1.0000000000000001e-09
# zbase: 3.4999999999999998e-10
# xnodes: 35
# ynodes: 35
# znodes: 5
# xstepsize: 2.0000000000000001e-09
# ystepsize: 2.0000000000000001e-09
# zstepsize: 6.9999999999999996e-10
# xmin: 0
# ymin: 0
# zmin: 0
# xmax: 7.0000000000000005e-08
# ymax: 7.0000000000000005e-08
# zmax: 3.4999999999999999e-09
# valuedim: 3
# valuelabels: Magnetization_x Magnetization_y Magnetization_z
# valueunits: A/m A/m A/m
#
# End: Header
#
# Begin: Data Text
 -0 0 -0
 0 0 -0
 -0 -0 0
 -0 0 0
 0 0 0
 -0 0 -0
 0 0 0
 0 -0 0
 -0 0 0
 0 0 0
 0 0 0
 -0 -0 0
 0 0 0
 -7424.7173874449363 7311.6671625404542 -999945.7050735408
 -10710.643734003575 4263.5291437854339 -999933.55000722094
 -13764.562970502506 409.70998495961345 -999905.17997656111
 -16204.168487750252 -3619.8731853171644 -999862.15121972852
 -17942.271788670019 -7591.936722066881 -999810.20067804365
 -18896.394199642691 -11345.724126460766 -999757.07090787718
 -18994.942661855857 -14709.368175493202 -999711.37166741816
 -18162.213934801108 -17450.241426189197 -999682.76120935206
 -16407.869975544574 -19183.825374540458 -999681.33054832253
 0 0 0
 -0 0 -0
 -0 0 -0
 -0 0 0
 0 -0 0
 -0 0 0
 -0 -0 0
 0 0 0
 0 -0 0
 0 -0 -0
 0 -0 0
 -0 -0 0
 0 0 -0
 -0 -0 -0
 -0 -0 -0
 -0 -0 -0
 -0 0 -0
 0 0 -0
 0 0 -0
 -0 -0 0
 0 0 0
 0 0 -0
 0 0 0
 5398.9719914459902 13871.663061101495 -999889.20789523225
 1490.8065702352042 10485.947283918218 -999943.90962959989
 -3043.905956128368 6178.8105873825416 -999976.27818676562
 -7856.9077261662587 3099.7388664043697 -999964.32967378502
 -11840.757704790254 -147.52646400368701 -999929.88488839497
 -14986.098571978215 -3443.7646394610674 -999881.77167838137
 -17420.662280814126 -6700.7049541404149 -999825.79536578036
 -19122.293094653938 -9811.7064130160779 -999769.00748326199
 -19995.838580221774 -12676.140489060937 -999719.70166730986
 -19920.786417014599 -15199.846544396141 -999686.01417322771
 -18704.088477835772 -17328.105442468728 -999674.8940710614
 -16020.694619209675 -19246.425090672918 -999686.40706230816
 -11956.656291087011 -21809.205613866186 -999690.65061189246
 -8375.4728650499983 -24619.293277017015 -999661.81374144065
 -5111.2543482875262 -26436.955385213587 -999637.41550071409
 -0 0 -0
 0 -0 0
 -0 0 -0
 0 -0 -0
 -0 0 0
 -0 0 0
 -0 0 -0
 -0 0 0
 -0 0 -0
 -0 0 0
 0 -0 -0
 -0 0 -0
 -0 0 0
 -0 0 0
 -0 -0 0
 0 0 -0
 0 -0 -0
 -0 -0 0
 14009.648050814205 15432.482048054308 -999782.76053317136
 9726.5050397441846 12106.375411145638 -999879.40811585682
 4659.5497723586986 9060.8303351754766 -999948.09362764226
 -164.30624354738902 5337.521014557622 -999985.74183479103
 -4802.7849153994312 1609.895894909673 -999987.17066383583
 -9263.8518946703589 -1481.5820788423696 -999955.99201295711
 -13077.798826740946 -4181.830671165837 -999905.73729231337
 -16145.958022616052 -6682.0350342705478 -999847.3175677039
 -18511.365904285245 -9028.8420158164827 -999787.88217511971
 -20131.481059491387 -11183.279309036823 -999734.79369993287
 -20901.099344430233 -13098.588704879527 -999695.73922275717
 -20690.539055157456 -14756.618251888889 -999677.01974756562
 -19345.707211212106 -16221.904306891713 -999681.2459144945
 -16751.634709216607 -17754.515645288713 -999702.03556298208
 -13173.518259498254 -19753.102821904708 -999718.0969381188
 -9252.1427792055256 -21985.702846650471 -999715.47288432636
 -4691.096745962881 -24010.272370593735 -999700.70542738459
 667.9498973574922 -25808.074146255785 -999666.69302912953
 4848.1260424103248 -27682.227004302564 -999605.01698518859
 -0 0 -0
 -0 -0 -0
 0 0 -0
 -0 0 0
 -0 0 -0
 0 0 -0
 0 -0 -0
 -0 -0 -0
 -0 -0 0
 0 0 0
 0 0 0
 0 0 -0
 -0 0 0
 0 0 0
 -0 -0 -0
 17219.336456220837 13069.1656340067 -999766.31837726897
 12701.285096446083 10794.941278552134 -999861.06364819082
 7547.3381567014694 7158.435202043298 -999945.89578247012
 2540.8095982019013 3699.709085723814 -999989.9281689123
 -2113.8324756557918 460.10387669895033 -999997.66000560578
 -6465.5608405426801 -2459.9806029900933 -999976.07222295576
 -10505.462431742142 -4911.8522159795875 -999932.75222232006
 -14037.692821495839 -6974.6053281107379 -999877.1414832758
 -16956.668447942135 -8773.5664882849251 -999817.73135218117
 -19217.054706961946 -10364.318559381985 -999761.61444075732
 -20743.088381272813 -11745.607251907437 -999715.84212449635
 -21428.850288119691 -12911.662672431426 -999686.997685957
 -21165.32161851375 -13890.088594655217 -999679.495938382
 -19864.825658313053 -14777.452326972321 -999693.46081900969
 -17518.567385341041 -15763.561464819286 -999722.26639537746
 -14292.440098015542 -17040.588945410087 -999752.64164914237
 -10409.630635080346 -18578.226997677688 -999773.21882098028
 -5807.7561178179512 -20311.922817786039 -999776.82297616813
 -546.02428149504703 -22303.270216896053 -999751.10202245659
 4950.8970867014195 -24359.478791248748 -999691.00446640793
 10206.283683233511 -25446.617904045324 -999624.08004740614
 -0 -0 -0
 0 -0 0
 -0 0 -0
 -0 -0 -0
 0 -0 -0
 0 -0 -0
 0 0 -0
 0 -0 -0
 -0 0 -0
 0 0 -0
 -0 0 0
 -0 0 0
 -0 0 -0
 19721.798171173599 12045.93356908209 -999732.9374194612
 15338.77780836278 9342.6722866349792 -999838.70517693495
 10077.68260457852 5878.9232253452246 -999931.93697122799
 5080.1007405015689 2495.1977991286631 -999983.98315393494
 479.4274143814348 -494.09510601046651 -999999.76300966227
 -3778.6887716406841 -3099.6741472520221 -999988.05669435253
 -7752.2704514536981 -5335.8024890210027 -999955.71477673226
 -11422.481615458661 -7192.0492069248758 -999908.89652105293
 -14680.997010675053 -8713.8411814676801 -999854.25802895753
 -17423.432922900527 -9968.0485275527535 -999798.51069789752
 -19560.133390649982 -10995.380427846574 -999748.21969883353
 -20993.256082639891 -11811.787872884015 -999709.84033683222
 -21620.69975987609 -12436.193343512366 -999688.8948252931
 -21356.438814902693 -12915.766841397042 -999688.49422609818
 -20153.354595537188 -13342.297645075296 -999707.87002608762
 -18030.326261635801 -13848.177153919341 -999741.53425993701
 -15084.105410449369 -14556.424540830943 -999780.26599275984
 -11419.972614443202 -15518.984609556463 -999814.35543913557
 -7054.6247614205358 -16776.038573491893 -999834.3846854117
 -2003.7068073681546 -18392.258306417683 -999828.84034889704
 3687.6972798915785 -20357.64322702065 -999785.96071909962
 9846.7876472365588 -22478.35233869958 -999698.83687496977
 15235.863453103411 -24105.073294520058 -999593.32426057372
 0 -0 -0
 -0 0 -0
 0 0 0
 0 0 -0
 0 -0 0
 -0 0 0
 -0 0 0
 0 -0 0
 -0 -0 -0
 -0 -0 -0
 0 0 0
 21960.360508890084 11952.612505683559 -999687.3899477818
 17664.723016020391 8929.5405767573593 -999804.0912428071
 12430.374240313951 5253.0247000671361 -999908.9416180586
 7429.3742951184995 1896.9805617901552 -999970.60249905917
 2904.2007342899747 -988.62730739354652 -999995.29410599824
 -1230.3643568357418 -3428.429762656132 -999993.36601445102
 -5079.7552559707183 -5485.1558275699681 -999972.05418555927
 -8693.2699325638496 -7199.9283100753737 -999936.29201575089
 -12047.001716598794 -8594.3916545529974 -999890.49709542119
 -15056.977347204371 -9699.164904047353 -999839.59395161457
 -17619.0950288325 -10550.335686259717 -999789.1067156475
 -19626.129279839381 -11175.796770422281 -999744.92577658896
 -20970.97248592407 -11597.505714564817 -999712.81685001682
 -21556.748012186104 -11845.87585979046 -999697.4451504082
 -21313.127172804227 -11973.445685613604 -999701.14894828922
 -20211.617881576571 -12060.58824128665 -999722.97798634344
 -18274.5431751652 -12207.627753599874 -999758.47828181426
 -15566.809996932674 -12511.188122913609 -999800.55240946554
 -12157.834945445342 -13045.057392139766 -999840.99412210297
 -8080.5116775634451 -13877.508926502071 -999871.05172468279
 -3335.3755181405886 -15087.105446467971 -999880.62013392383
 2103.0426038077085 -16753.023904922225 -999857.44654017931
 8207.2909831924389 -18934.056122408187 -999787.04827251623
 14556.917414885846 -21495.000541756886 -999662.97376019985
 19871.192027968515 -23562.41589471788 -999524.86126388656
 0 -0 0
 0 0 0
 0 -0 -0
 0 -0 0
 0 -0 -0
 -0 -0 0
 0 -0 -0
 0 -0 0
 0 0 -0
 24295.655711952357 12275.113008387822 -999629.45270442963
 19932.629215057717 9135.2053075935219 -999759.59025985992
 14656.620665627908 5312.207945869287 -999878.47457448742
 9642.5639661323603 1858.6725595525404 -999951.78198574937
 5153.913981109954 -1021.5965293292014 -999986.19666033739
 1124.4375456776704 -3397.4702446913229 -999993.59639756836
 -2582.71999947736 -5363.2650604725713 -999982.28231568949
 -6067.5590527654449 -6989.3696135745313 -999957.16580238857
 -9365.0595967126246 -8317.0904030388901 -999921.55775639624
 -12446.064616863632 -9369.5895533108014 -999878.64577015315
 -15232.692332385355 -10166.641530319699 -999832.28817852261
 -17621.612455505543 -10728.53168279224 -999787.16604205291
 -19501.01399818412 -11075.092369951164 -999748.49476357771
 -20762.647164125756 -11229.365489593931 -999721.36809885141
 -21314.973438425954 -11225.478334172065 -999709.78816028812
 -21096.796497299598 -11115.168274966749 -999715.64867804828
 -20086.934712984454 -10968.653754093086 -999738.06754002301
 -18305.544669133269 -10867.990134534375 -999773.37123210193
 -15802.963640748068 -10895.15162741733 -999815.76403414679
 -12635.648407153236 -11124.382912625884 -999858.28420538874
 -8840.9557828130201 -11628.038927492924 -999893.30741411983
 -4425.2947622422571 -12487.153770543373 -999912.24002758274
 636.38927848305104 -13799.174932133954 -999904.584337865
 6364.1320987207209 -15675.154339911078 -999856.88343834982
 12654.281528104229 -18170.381895980016 -999754.82313453313
 19059.230808554985 -21041.869107170613 -999596.91149255913
 24330.201595297371 -23290.659184981589 -999432.63228947099
 0 -0 0
 0 -0 0
 0 0 -0
 0 0 -0
 0 0 -0
 0 -0 0
 -0 0 -0
 27225.456996328787 12546.935335464923 -999550.57346040697
 22501.76045504335 9550.4160444534336 -999701.18551985431
 16971.853660637978 5748.4195210405032 -999839.44303889701
 11815.852824326237 2253.677525627073 -999927.65066260891
 7284.4035337219257 -661.68487698069043 -999973.24946134491
 3298.370887759088 -3034.439083660533 -999989.95641403028
 -297.77064346600798 -4970.1274499630072 -999987.60450606362
 -3641.4201090078832 -6558.5502253157765 -999971.86234340211
 -6815.6477962530207 -7858.2658658029513 -999945.89583771979
 -9841.8759339070457 -8901.7279561712348 -999911.94448186096
 -12686.069061538397 -9705.8686053960591 -999872.42174508469
 -15272.238778614985 -10282.177506491458 -999830.50340965972
 -17499.370468282388 -10642.294073154346 -999790.23480431864
 -19257.181415444084 -10801.14442821891 -999756.21840675396
 -20440.391273707744 -10780.889493390227 -999732.94575416937
 -20962.447570593842 -10615.503504262597 -999723.90532446571
 -20767.253048061622 -10353.490791237429 -999730.72696065204
 -19835.777931628112 -10056.703914263755 -999752.67172447615
 -18184.843535247041 -9795.0581345435294 -999786.66139418923
 -15856.940814501366 -9639.4618032206727 -999827.80427639117
 -12902.926586903062 -9657.6648696603097 -999870.11356213572
 -9363.4888636485612 -9916.6672288680147 -999906.98806807655
 -5255.7778439743979 -10489.851403040435 -999931.16753944464
 -568.29824999458981 -11465.109072736648 -999934.11198490928
 4727.4838667323902 -12946.526986273273 -999905.01465653419
 10637.722796628448 -15027.898377583746 -999830.48619456252
 17063.327661241739 -17701.228531026063 -999697.70898888109
 23585.422845136254 -20632.215727132767 -999508.89916168572
 28986.264434191013 -22737.313155211243 -999321.17513071478
 0 0 0
 0 0 0
 -0 0 0
 0 -0 0
 -0 0 -0
 31215.075842291826 11954.632774931933 -999441.19676716195
 25841.655492202073 9714.5020080032282 -999618.84600689635
 19712.386666173177 6252.8331379277852 -999786.13907658914
 14160.316503475658 2868.9580367765111 -999895.62181074917
 9417.5897208534825 -27.49017308474928 -999955.65314074804
 5362.703248712226 -2403.4805905355943 -999982.73219836992
 1802.3850370308303 -4337.4308898734344 -999988.9689898853
 -1437.1193066531143 -5919.3688245095609 -999981.44770831522
 -4480.2269966163103 -7217.6360739084639 -999963.91599675431
 -7393.5126713259751 -8274.4160873674628 -999938.43310915516
 -10187.59079135621 -9111.5315284701101 -999906.59213102178
 -12824.862533171208 -9738.7780472428785 -999870.33114456991
 -15231.054848409403 -10161.554435245389 -999832.36483905872
 -17308.950415444269 -10386.390152644266 -999796.2408086526
 -18952.645621455285 -10425.010033949991 -999766.03082408197
 -20061.605416263526 -10297.903000531463 -999745.71025932068
 -20553.774338583837 -10037.090368717667 -999738.36536234256
 -20375.916204448135 -9686.903556657684 -999745.46057399688
 -19508.815615112821 -9301.9632180363769 -999766.41251523618
 -17965.673468509947 -8942.7670299261699 -999798.61046846397
 -15783.651142687024 -8670.6909493834119 -999837.83458872268
 -13010.48414597895 -8545.0352199701592 -999878.84749872412
 -9689.7161365795273 -8623.9883277764966 -999915.86457387265
 -5848.0910734076015 -8969.1390149986619 -999942.67554501689
 -1487.4520566804058 -9651.2984731852866 -999952.31882533303
 3416.3029232950862 -10752.843382366429 -999936.35059114161
 8904.5177220084697 -12357.02440962841 -999884.00002794235
 15010.122941409512 -14508.881976927751 -999782.07052990468
 21678.186369808296 -17115.931051525491 -999618.47779037943
 28524.795620176385 -19704.994917745418 -999398.84391073766
 34251.114191474553 -21019.077471959183 -999192.20351185219
 0 0 0
 -0 -0 -0
 0 -0 -0
 0 0 -0
 28911.422376547431 9191.1364318002597 -999539.7204049757
 23035.457674364538 6573.9300966297396 -999713.03439177864
 16936.255642130822 3517.578742255459 -999850.38374979701
 11752.653564639697 743.00448719347196 -999930.65913518285
 7450.7779496026906 -1594.1988906818383 -999970.97179760307
 3801.2769269232999 -3519.6453254045437 -999986.58110522083
 584.10835127506402 -5103.5866512627472 -999986.80602332274
 -2368.5094732038961 -6412.1980166208568 -999976.6366668127
 -5165.6812997389043 -7492.5385215455044 -999958.58794412704
 -7860.3799093511143 -8371.8439056090428 -999934.06115468498
 -10455.285778527028 -9062.3801757207966 -999904.27555083483
 -12910.825473737723 -9567.7790167935054 -999870.87575860124
 -15155.183791191619 -9889.0126389783436 -999836.25050969294
 -17095.964460469288 -10029.295252217029 -999803.5513219136
 -18632.881875931806 -9997.9631471520734 -999776.40322519396
 -19670.736472319026 -9813.4449019254353 -999758.35001553898
 -20131.469393593659 -9504.953249715134 -999752.15918935416
 -19963.481904381275 -9112.2871451013871 -999759.18381040078
 -19146.300150585699 -8683.5169340758384 -999778.98343793908
 -17689.4478289201 -8271.1388023476848 -999809.31766933459
 -15625.729154621835 -7928.0735285415703 -999846.47933495895
 -13000.504508727803 -7705.1757946789085 -999885.80205366015
 -9859.3174497271848 -7651.3854971534647 -999922.12204721186
 -6236.0797126110474 -7816.4318040349763 -999950.00610214053
 -2143.1321810268701 -8254.683963959189 -999963.63292727305
 2436.173752133212 -9027.2515871105934 -999956.28593765676
 7551.7879496707319 -10197.510157514243 -999919.48740153597
 13283.394364896096 -11812.432911489705 -999841.99644886819
 19702.541802925247 -13854.117937273935 -999709.8945507562
 26681.854393712823 -16122.316340832187 -999513.95666189597
 32964.889635849519 -17966.210281338626 -999295.01716931595
 -0 0 -0
 -0 -0 -0
 0 0 -0
 33449.564582607607 8747.5093284718623 -999402.1251277097
 27433.694672454578 6902.3382606862606 -999599.7949795475
 20528.381154849056 4167.8212771513709 -999780.58334464708
 14579.477958265776 1560.7139195228845 -999892.49571867753
 9769.8639128998002 -693.69069579371092 -999952.03312576038
 5842.4727574693561 -2583.9575794135508 -999979.59412945318
 2516.2261797623783 -4158.4757798793753 -999988.18777273607
 -431.40705822177267 -5474.2193336848131 -999984.92329166504
 -3156.1648388377234 -6577.4126325900952 -999973.38777918008
 -5753.1995828513791 -7498.1702735399167 -999955.33807121043
 -8264.879676891027 -8251.7504616589649 -999931.79786335677
 -10688.387829925074 -8842.648937924434 -999903.7783333743
 -12983.60263552096 -9269.5372780462549 -999872.74277342611
 -15081.923904563389 -9530.0428093434057 -999840.84426242008
 -16896.34600641474 -9624.9095507292441 -999810.91942815459
 -18332.632832165109 -9561.364316875337 -999786.22459295846
 -19300.959761550745 -9355.4905382621855 -999769.94741243916
 -19726.834441356033 -9033.2497534117501 -999764.59849397361
 -19559.646560748773 -8629.8096273978463 -999771.44718791277
 -18777.241333420643 -8187.2035590388623 -999790.1704386723
 -17385.572726145743 -7750.9176210931801 -999818.81615471444
 -15413.583833772123 -7366.4725215175104 -999854.06760986336
 -12904.45110086808 -7077.1643078226807 -999891.68857789075
 -9904.8492997171033 -6923.7213496463473 -999926.97535521176
 -6453.6750537842554 -6945.8661865866561 -999955.05150042521
 -2570.9756012581538 -7184.9112533715252 -999970.88314347388
 1753.0010590948223 -7685.7185462781435 -999968.92787611869
 6568.9775779641832 -8495.6123678708391 -999942.33488940494
 11978.347914470069 -9657.0146467249597 -999881.62361819239
 18128.941396947997 -11188.6723957059 -999773.05179417983
 25139.319249100696 -13043.605485334274 -999598.8590347803
 32702.735053251454 -14977.619985168141 -999352.8916351907
 39070.083525448681 -15929.278531208107 -999109.49683144828
 -0 -0 0
 0 0 -0
 31427.306209337814 6607.0936439879688 -999484.20234539185
 24971.29834597469 4717.5918411958755 -999677.03714056383
 18191.837366260595 2375.4217132719709 -999831.69304884702
 12592.313156412736 233.75033304195094 -999920.68635974952
 8134.9607930490192 -1596.0355440022918 -999965.63695130963
 4510.7302963296588 -3140.1731631788111 -999984.89619828714
 1434.4291661470022 -4447.859365330979 -999989.07942038728
 -1305.8765891559071 -5562.8241092095814 -999983.67470387416
 -3852.1707738343439 -6515.8760549150275 -999971.35165941936
 -6287.5825658585172 -7324.2534126422224 -999953.40972338559
 -8646.3447134557809 -7993.9162898997065 -999930.66660916375
 -10922.02842912133 -8523.1429478166156 -999904.02805933554
 -13075.081520467516 -8906.5378846280728 -999874.85008182039
 -15040.670129399748 -9138.9331196538005 -999845.11707738671
 -16737.429410844223 -9218.870025579663 -999817.418778133
 -18077.21926422722 -9151.4167117063062 -999794.71178629564
 -18975.435670695359 -8950.0399227425496 -999779.89058916795
 -19360.854609483795 -8637.2092274955357 -999775.2527071028
 -19183.599230532243 -8243.5284668435579 -999781.99311598856
 -18419.821293950281 -7805.5137731862023 -999799.87204351812
 -17072.213954471077 -7362.5571698182957 -999827.15119295183
 -15166.290266143111 -6953.9230998938692 -999860.80360872415
 -12743.172843645178 -6616.6443368374148 -999896.91046807263
 -9850.0274005797764 -6384.879116840073 -999931.10276602104
 -6529.1767030268065 -6290.766998819734 -999958.89720635395
 -2806.3519377421608 -6366.2856034887354 -999975.79710531828
 1322.1027087858083 -6645.2016047816815 -999977.04640659585
 5903.5442014860046 -7164.0051568939034 -999956.91166968446
 11043.567705627062 -7960.5539179547559 -999907.33030298888
 16910.324532160848 -9067.9179834619499 -999815.88994557504
 23680.182229799346 -10491.892559733333 -999664.52830941172
 31232.356227791101 -12110.376985063023 -999438.78186397196
 37936.71997733965 -13334.444781607845 -999191.17182835785
 0 0 0
 -0 -0 0
 29140.563901570349 5071.1384884746412 -999562.45982426184
 22682.96710419903 3157.2084154872141 -999737.72312460584
 16209.215246085603 1146.9173331930087 -999867.96424414788
 10950.319000900834 -611.73535109816737 -999939.85633818945
 6781.8526951419817 -2106.9570317749544 -999974.78328510246
 3388.7235327693361 -3385.5397163537523 -999988.52727101196
 497.7770313520528 -4492.6788993306664 -999989.78397498361
 -2088.2195297913404 -5460.7254919201378 -999982.90976211033
 -4498.0415730492959 -6308.5361585828286 -999969.98454630794
 -6804.7455886039543 -7043.3945818326511 -999952.04186512809
 -9036.3631572027261 -7663.8537711942181 -999929.80227927247
 -11184.257204770693 -8162.9965423818294 -999904.13434400153
 -13210.251146044649 -8531.8118021246464 -999876.34108025162
 -15053.629387302779 -8762.4520015719499 -999848.29233098659
 -16638.737035588823 -8851.1540177728548 -999822.38897836953
 -17883.447227297467 -8800.5863051799715 -999801.34626632393
 -18708.229250858876 -8621.3402186414896 -999787.81481428957
 -19045.028726475724 -8332.2927517066964 -999783.90654096229
 -18844.76889248905 -7959.7039943049995 -999790.73700335494
 -18082.225438352219 -7535.1883278784808 -999808.10861887899
 -16757.347774970309 -7093.0198028517498 -999834.42647551652
 -14892.747090357439 -6667.4491371553731 -999866.86674082093
 -12527.710361398278 -6290.7126830798206 -999901.73687569913
 -9709.5300846585997 -5992.1832941895818 -999934.90726391983
 -6482.9117776980011 -5798.7570324272156 -999962.17242041777
 -2877.8873125335863 -5736.2280989961419 -999979.40651386057
 1103.8828147118204 -5831.2241175074332 -999982.38897893729
 5504.643809821755 -6113.2952780930646 -999966.16268620302
 10426.639248629912 -6616.8454134848489 -999923.74836822075
 16039.776007713446 -7381.7563754497833 -999844.10547766683
 22542.183966462093 -8445.4131299963501 -999710.22048345895
 29915.569320011455 -9792.5901695391967 -999504.45916465565
 36755.166840839986 -11138.810214230356 -999262.22014920251
 -0 0 -0
 35436.164903571531 5768.1770678586927 -999355.29535307945
 28659.137898992685 4059.3178850300369 -999581.00009613775
 21076.375398767963 2043.9652219428265 -999775.77916561964
 14660.37280135692 320.30196518583915 -999892.47965767595
 9622.7401387388818 -1119.2114135806551 -999953.07401799306
 5656.353417935783 -2346.7582484388136 -999981.24902006763
 2423.7204072721329 -3420.2012580909854 -999991.21386277257
 -339.41992137827089 -4378.0332360001739 -999990.35876307404
 -2817.1927815595081 -5242.2707338735436 -999982.29085438547
 -5126.9587772362756 -6021.8851303038618 -999968.72510752745
 -7333.5004110471127 -6715.9678018027262 -999950.5565517759
 -9460.1254892257439 -7316.7512341969823 -999928.48303121387
 -11496.995769531462 -7812.5916175563907 -999903.38658317039
 -13407.868659100484 -8190.9031147646538 -999876.56146355637
 -15136.363826208579 -8440.948712205276 -999849.80915883486
 -16612.554552912326 -8556.33606727386 -999825.39082798373
 -17760.272637626789 -8537.0073928031961 -999805.82725877943
 -18505.056249249308 -8390.4734478535429 -999793.56011555332
 -18782.166685111784 -8132.0613801180789 -999790.52795689297
 -18543.703325368238 -7784.0732043926619 -999797.74918296828
 -17763.663505341829 -7373.9779470316453 -999815.02124548319
 -16439.977818644078 -6932.0125584933403 -999840.82449718541
 -14592.996949916005 -6488.7382601034524 -999872.4622249637
 -12260.501630642277 -6073.1034887587775 -999906.39437588362
 -9489.7224053892351 -5711.4060994156389 -999938.66062325845
 -6327.0203271947321 -5427.2941537166726 -999965.25604240282
 -2805.6461124072171 -5242.7281509405602 -999982.3209194385
 1068.3414606388576 -5179.7411513196621 -999986.01436626539
 5332.1392797373264 -5262.9485682115228 -999971.93443769694
 10083.396690118474 -5523.015381385826 -999933.90852210158
 15493.198038909941 -6001.3980917171584 -999861.96249055886
 21793.396391617902 -6755.4978646106238 -999739.67167574132
 29160.060750311644 -7854.6909985172369 -999543.8933265293
 37215.325090080034 -9280.7764160966362 -999264.17266284209
 44013.487072744894 -10264.549185598402 -998978.20395928237
 34318.198316330367 3611.1678809522264 -999404.43301541184
 27220.579386084264 2469.7008658814116 -999626.40052947728
 19640.70337558454 1027.1387647549545 -999806.57517185295
 13402.708032180362 -279.06970480491179 -999910.14073140768
 8537.5204916680341 -1410.9617072906208 -999962.55926455325
 4704.9816418723703 -2412.5966472478112 -999986.02116487978
 1571.7903207705556 -3324.8660122224378 -999993.23734772729
 -1113.9339980427944 -4173.1813682835618 -999990.67181065003
 -3523.9658759789913 -4968.678609334369 -999981.44677657983
 -5765.6894054250361 -5711.2757528897691 -999967.06853523664
 -7896.9649592110072 -6392.6809673674625 -999948.38445515872
 -9937.4226398536703 -6999.208435208544 -999926.12662764115
 -11876.719718444036 -7514.4834020220751 -999901.23315652041
 -13680.934602546231 -7922.0576397214409 -999875.02870666503
 -15298.19568599022 -8207.8805484330514 -999849.28659556282
 -16664.3759999166 -8362.5010713522843 -999826.16846548137
 -17709.359574373244 -8382.8195793839259 -999808.03503440856
 -18363.973533021664 -8273.1723719346646 -999797.13897119288
 -18567.229019027131 -8045.5527492279598 -999795.24258095678
 -18273.068519095592 -7718.8766787535669 -999803.23759713583
 -17455.563583031744 -7317.3827856211365 -999820.86355965177
 -16111.512926356052 -6868.4622957197971 -999846.60992420034
 -14259.741067900444 -6400.3595392037223 -999877.84012970573
 -11936.890212928975 -5940.2096006129177 -999911.10833010811
 -9190.0116337519503 -5512.7722194596463 -999942.5748654909
 -6066.4861224537244 -5140.0457381586593 -999968.38833831926
 -2601.7871820884757 -4841.7793538009291 -999984.89382397581
 1194.7186643639639 -4636.8372279907408 -999988.53612820699
 5355.8701818585496 -4545.41763256584 -999975.32661218219
 9974.0306566269173 -4592.2312444611243 -999939.71324508265
 15215.299418971208 -4810.5135861822773 -999872.66870468471
 21313.228674169204 -5244.6581626666193 -999759.09090352326
 28479.149749531167 -5937.7830665183519 -999576.75081096159
 36516.984350703009 -6839.339778629007 -999309.62833614449
 43516.605515038602 -7513.38355203431 -999024.4512083017
 33193.813446187873 1759.6916921289737 -999447.38442503731
 26000.767497270546 1110.3152026110602 -999661.30628813675
 18510.009854038446 202.19621210893695 -999828.65464633238
 12408.205143183517 -709.77547043521088 -999922.76334920316
 7649.5051979418886 -1566.2598420173786 -999969.51548551407
 3886.9344722005935 -2377.8589400937967 -999989.61870974908
 798.26508783191105 -3163.6896993053051 -999994.67690600036
 -1855.1995429949427 -3934.4855452961569 -999990.53898431954
 -4233.7421676450622 -4690.4061890295034 -999980.03755927028
 -6435.8787177594149 -5422.6027203176764 -999964.58679538663
 -8513.5057586725852 -6115.5590732608734 -999945.05856917892
 -10483.295274551547 -6749.5508740403184 -999922.26902054017
 -12334.889577254207 -7303.1005637601493 -999897.25233209447
 -14037.005641353275 -7755.3827085951689 -999871.39998685208
 -15542.503804871132 -8088.5020206207382 -999846.49157285038
 -16793.284257358533 -8289.5241950544914 -999824.61931704369
 -17725.607547577853 -8352.0953309621764 -999808.00423913996
 -18276.099073769507 -8277.4605025088131 -999798.71366704383
 -18388.252846648775 -8074.7072146596392 -999798.31529196177
 -18018.799555523168 -7760.140331141125 -999807.53302054026
 -17142.935995883778 -7355.8408419572161 -999825.99053582759
 -15757.331623762353 -6887.6322548608086 -999852.12257714418
 -13880.032437322659 -6382.8172901097851 -999883.29536150361
 -11546.880628355333 -5868.0928230683085 -999916.11399875663
 -8804.5637801076227 -5367.9944921523083 -999946.83073240158
 -5700.7973979241951 -4904.0886193608321 -999971.72501218331
 -2272.1596847115279 -4494.9914293390466 -999987.31609076797
 1470.0534804577792 -4157.1977372404153 -999990.27827761334
 5555.8261126635525 -3906.6567614122168 -999976.93514858349
 10073.58594570734 -3760.9064712351019 -999942.18755321507
 15184.936129280328 -3740.9352350125682 -999877.70408101287
 21122.329568923255 -3869.4075796775342 -999769.41085360479
 28117.459098443807 -4154.1462720936279 -999595.99417094386
 36068.936035117971 -4532.8386765552386 -999339.02416888892
 43176.382539629871 -4796.1310595808718 -999055.95294640562
 32387.357772259274 433.96650718556577 -999475.29770855361
 25161.379604497215 89.822110169553554 -999683.39833588665
 17707.92246358834 -434.06919619139819 -999843.10822546377
 11658.004066239237 -1024.8558444457301 -999931.51796095003
 6929.4323417534069 -1647.392763841922 -999974.63421053975
 3173.0709873574324 -2300.6298949122238 -999992.31933180161
 76.767508627203057 -2988.1770940225324 -999995.53244222258
 -2586.490630410161 -3707.6051959426809 -999989.78181275923
 -4966.8100550621994 -4448.4010060555956 -999977.77101611916
 -7154.8532573252978 -5192.8636609653695 -999960.92035732302
 -9197.2949703283975 -5917.925281466918 -999940.19217430812
 -11108.387893198062 -6597.3012507606763 -999916.53618420602
 -12878.173353907267 -7203.7762161015526 -999891.12320256897
 -14478.367154440984 -7711.5069992305234 -999865.44571974385
 -15866.943147597165 -8098.2244766893518 -999841.31684756652
 -16992.299247758114 -8347.1973345996412 -999820.77697101887
 -17797.70152135332 -8448.8002511525501 -999805.91096215916
 -18226.400273556341 -8401.5137680081716 -999798.58616597077
 -18227.405287778427 -8212.1953464780054 -999800.14080018341
 -17761.406955477705 -7895.5224546352811 -999811.07872844173
 -16805.918989635775 -7472.6247369156599 -999830.84617671953
 -15358.506733199129 -6969.0746530998822 -999857.76401916577
 -13437.128209631794 -6412.541728004062 -999889.15530375915
 -11077.026991533328 -5830.4886703768352 -999921.64936803596
 -8324.1965486934914 -5248.2639283584531 -999951.58056655747
 -5225.8216669152453 -4687.8464828568058 -999975.35713799414
 -1818.2804113014715 -4167.361240749965 -999989.66342489514
 1886.9112114618251 -3701.3623132858565 -999991.36970431183
 5918.9784610322849 -3301.7759618690075 -999977.03172096692
 10365.097351260696 -2979.2294778880178 -999941.8427831775