# OOMMF OVF 2.0
#
# Segment count: 1
#
# Begin: Segment
# Begin: Header
#
# Title: Oxs_TimeDriver::Magnetization
# Desc: Oxs vector field output
# Desc:  MIF source file: /mnt/gpfs/work/plgrid/groups/plggspinsym/MF/switching-obrazki/p-ap/Anisotropy.mif
# Desc:  Iteration: 42200, State id: 295550
# Desc:  Stage: 0, Stage iteration: 42200
# Desc:  Stage simulation time: 6.21274e-09 s
# Desc:  Total simulation time: 6.21274e-09 s
# meshunit: m
# meshtype: rectangular
# xbase: 1.0000000000000001e-09
# ybase: 1.0000000000000001e-09
# zbase: 3.4999999999999998e-10
# xnodes: 35
# ynodes: 35
# znodes: 5
# xstepsize: 2.0000000000000001e-09
# ystepsize: 2.0000000000000001e-09
# zstepsize: 6.9999999999999996e-10
# xmin: 0
# ymin: 0
# zmin: 0
# xmax: 7.0000000000000005e-08
# ymax: 7.0000000000000005e-08
# zmax: 3.4999999999999999e-09
# valuedim: 3
# valuelabels: Magnetization_x Magnetization_y Magnetization_z
# valueunits: A/m A/m A/m
#
# End: Header
#
# Begin: Data Text
 -0 0 -0
 0 0 -0
 -0 -0 0
 -0 0 0
 0 0 0
 -0 0 -0
 0 0 0
 0 -0 0
 -0 0 0
 0 0 0
 0 0 0
 -0 -0 0
 0 0 0
 20524.042874728984 34380.449982214923 -999198.05260173371
 18170.026765526953 34164.551779311012 -999251.03629121103
 16049.417901073875 33860.039090270715 -999297.71036355419
 14456.708208923676 33627.248971560686 -999329.88132766599
 13102.076457232406 33513.213257188385 -999352.39036572422
 11643.940843021412 33536.264294738066 -999369.67015153985
 9746.4870714016051 33707.396848141914 -999384.21910068637
 7166.3934870231669 33995.719410841128 -999396.28469698073
 4382.0318423120816 34223.327793038203 -999404.60356739559
 0 0 0
 -0 0 -0
 -0 0 -0
 -0 0 0
 0 -0 0
 -0 0 0
 -0 -0 0
 0 0 0
 0 -0 0
 0 -0 -0
 0 -0 0
 -0 -0 0
 0 0 -0
 -0 -0 -0
 -0 -0 -0
 -0 -0 -0
 -0 0 -0
 0 0 -0
 0 0 -0
 -0 -0 0
 0 0 0
 0 0 -0
 0 0 0
 25180.625233844909 32721.328729472643 -999147.26179828472
 23336.174968326053 31668.607063904208 -999225.96156449011
 21965.160283969501 29968.10894572896 -999309.4836835668
 20228.897175975471 29356.701996311185 -999364.28581721068
 17939.100286467561 28423.047653181107 -999434.99990895716
 16016.662669836067 27828.50903101185 -999484.38737282529
 14550.931744283771 27509.783804064769 -999515.62378005206
 13292.203042994821 27398.928688043459 -999536.20046750235
 11952.500538629052 27491.005519479273 -999550.59018861165
 10259.941811077682 27840.852059243811 -999559.71334915678
 8042.8587988463532 28559.81022680004 -999559.72791131958
 5613.8694788641469 29694.068788393033 -999543.26907256234
 4149.515854460411 30363.540020940611 -999530.30817257892
 2396.0559316340632 31703.458271278047 -999494.44703290553
 -73.31516016520122 32469.167128393448 -999472.73490119551
 -0 0 -0
 0 -0 0
 -0 0 -0
 0 -0 -0
 -0 0 0
 -0 0 0
 -0 0 -0
 -0 0 0
 -0 0 -0
 -0 0 0
 0 -0 -0
 -0 0 -0
 -0 0 0
 -0 0 0
 -0 -0 0
 0 0 -0
 0 -0 -0
 -0 -0 0
 29772.053869163869 30488.940777795415 -999091.61206500977
 27476.646432202175 29117.413874854017 -999198.28368051175
 24845.690787606774 28032.590842985621 -999298.1864788488
 22398.20441376109 26201.505670602743 -999405.72418794595
 20588.163347111265 24306.252240845854 -999492.53805718676
 18910.083892165596 22790.209930180907 -999561.41134926234
 17179.389741235311 21630.237338483294 -999618.42790176673
 15692.871878387436 20931.215366202516 -999657.7504303673
 14493.161413674834 20579.632926752376 -999683.16329767054
 13433.690408376964 20484.348623175702 -999699.91868735082
 12322.786879813291 20629.337095422332 -999711.24799839978
 10986.31269820297 21070.430934056851 -999717.62907010422
 9338.7723518328403 21917.939608899149 -999716.15534323605
 7519.6967648372865 23233.47379753285 -999701.78546197689
 5804.8399359445302 24766.281890286315 -999676.41520376422
 3677.0830246753553 26525.418303809292 -999641.37631664565
 800.1889306280749 28284.693487612989 -999599.58774100489
 -2073.2109462537592 29252.745722064345 -999569.8968376813
 -4948.1222295945972 30215.466191614571 -999531.16093958006
 -0 0 -0
 -0 -0 -0
 0 0 -0
 -0 0 0
 -0 0 -0
 0 0 -0
 0 -0 -0
 -0 -0 -0
 -0 -0 0
 0 0 0
 0 0 0
 0 0 -0
 -0 0 0
 0 0 0
 -0 -0 -0
 32390.82634697176 27091.597430755399 -999108.04206412542
 29289.390628072008 26210.074771727748 -999227.28324295522
 25931.619766541346 24067.835612662217 -999373.94922281476
 23092.450614551828 21954.102552134744 -999492.24914740829
 20799.175673301219 19977.794692527805 -999584.05449993769
 19063.628772864406 18276.925579719624 -999651.20519577421
 17634.953145648775 16922.862242783351 -999701.26796011545
 16361.912006499859 15934.391099030037 -999739.15748848941
 15274.536786469989 15317.550481052347 -999766.00320936064
 14360.62510406279 15003.782218436671 -999784.30622097792
 13532.700356824689 14932.130445019367 -999796.92813162098
 12674.497503800496 15088.32481577876 -999805.83093282639
 11680.643736620534 15506.874961675738 -999811.53193530475
 10493.225725404425 16250.834306849079 -999812.8837928659
 9125.2594830342205 17354.089147220828 -999807.76413730555
 7569.0821090340587 18757.845986043751 -999795.40517547424
 5574.7476905196436 20457.898142635029 -999775.17302230129
 2934.7264484870534 22443.481023286204 -999743.80595241988
 -290.98217246669265 24521.750962667418 -999699.25430556363
 -4138.030499615621 26578.721915040936 -999638.15865789494
 -7498.8784483422323 27437.92489721586 -999595.38169168809
 -0 -0 -0
 0 -0 0
 -0 0 -0
 -0 -0 -0
 0 -0 -0
 0 -0 -0
 0 0 -0
 0 -0 -0
 -0 0 -0
 0 0 -0
 -0 0 0
 -0 0 0
 -0 0 -0
 33909.063763439633 25149.263502334012 -999108.44753709156
 30977.01488837125 23554.737125952364 -999242.51256015582
 27157.760202946189 21089.984737160437 -999408.65946045623
 23797.127067884525 18657.042076438767 -999542.70120104088
 21191.711449734677 16588.364807178175 -999637.80316615431
 19225.934280220714 14879.478820789915 -999704.43860226718
 17757.546437864661 13509.284086244559 -999751.05340678908
 16613.566498602911 12454.857862983516 -999784.40972232062
 15672.373673411659 11697.668527109685 -999808.75233940152
 14886.495554538262 11216.251732528524 -999826.27888407535
 14215.613308232501 10969.504454518277 -999838.78015922813
 13598.532500308384 10922.042595624051 -999847.88287987944
 12962.285077003044 11063.706329988012 -999854.77623894275
 12238.617875827609 11411.99605252135 -999859.98148670141
 11376.529456260379 12000.146762163295 -999863.27618090715
 10337.925718016593 12853.806691663443 -999863.94421710295
 9053.0508812162207 13979.63877093964 -999861.29636543896
 7366.0717921632868 15407.212746786821 -999854.16875748825
 5105.2855980007034 17182.432101925238 -999839.33713673509
 2136.8037076869987 19325.180673809864 -999810.96786434553
 -1629.7678219808481 21844.297399656734 -999760.05647753377
 -5745.5254402545943 24372.52290587268 -999686.43537092092
 -8788.5458914940482 25871.153306777658 -999626.65274976066
 0 -0 -0
 -0 0 -0
 0 0 0
 0 0 -0
 0 -0 0
 -0 0 0
 -0 0 0
 0 -0 0
 -0 -0 -0
 -0 -0 -0
 0 0 0
 34988.82230480852 24226.983634194003 -999094.00737753941
 32146.593515715402 22185.477905383807 -999236.90939408611
 28278.302867568575 19262.331572276336 -999414.4786670492
 24637.478068893426 16522.811493943387 -999559.89884285606
 21708.637790267934 14270.695344519085 -999662.48419137683
 19511.58058762395 12501.888302874979 -999731.46445024689
 17900.131368175353 11126.947240104295 -999777.86349874642
 16718.903961673914 10071.303519096813 -999809.50540377782
 15830.280136302759 9282.5381612630281 -999831.60417946952
 15133.823879682926 8724.9476832138862 -999847.40968945064
 14567.690318620749 8370.1816118298411 -999858.85126780055
 14085.050942405283 8189.9869800819133 -999867.25891651027
 13638.243121243466 8162.8490834553413 -999873.67513071699
 13177.168643864745 8281.6380702578736 -999878.88101379771
 12653.240911310297 8555.013055955138 -999883.34681904409
 12021.147718807977 9002.4566456768571 -999887.21753099014
 11231.604434664188 9646.8142164957699 -999890.38901136338
 10211.43538278776 10514.280620519728 -999892.58247596561
 8846.0585537664392 11649.047309371543 -999893.0177498227
 6993.4888080776755 13117.959494352581 -999889.49902126472
 4502.6522677483381 15005.388389107513 -999877.27469017322
 1251.7230174309002 17400.919190930694 -999847.80901935173
 -2672.9874076508559 20265.314892847677 -999791.06424823182
 -6723.296405109958 23180.237057031743 -999708.69451827276
 -9632.0560319910819 24982.298898579542 -999641.48985440703
 0 -0 0
 0 0 0
 0 -0 -0
 0 -0 0
 0 -0 -0
 -0 -0 0
 0 -0 -0
 0 -0 0
 0 0 -0
 36145.647598926269 23675.876888167695 -999066.03636257723
 33203.291833061558 21491.866584311418 -999217.5143992278
 29240.319592958615 18335.139992998436 -999404.23570822354
 25458.064942580037 15337.66307157699 -999558.22392739193
 22319.452150965437 12884.960985488025 -999667.85475781048
 19905.229665175888 10993.131401503213 -999741.43301854108
 18126.482346152701 9565.5678890120853 -999789.94321243081
 16841.338322733125 8494.703821046649 -999822.08883905527
 15915.008523667038 7697.6122475050097 -999843.71742256731
 15236.555125634906 7116.896602825117 -999858.58858673018
 14723.308464674703 6713.6879734374697 -999869.06671906274
 14317.40962043308 6460.1362666612786 -999876.63160070742
 13975.096269876398 6334.6646830673317 -999882.27742449788
 13657.743473005961 6322.6899713560369 -999886.73840328131
 13328.104293703011 6418.9601911804721 -999890.57330589951
 12949.318845312273 6628.1843158453057 -999894.18555871095
 12482.996395964186 6963.5563402282241 -999897.83662335947
 11883.442918348235 7445.2314888336277 -999901.67132197774
 11087.812994426604 8102.448473458996 -999905.70091970952
 10007.842120892903 8980.5711320365663 -999909.59213232144
 8530.5439494397942 10146.748724712956 -999912.13279479917
 6524.7241113885975 11691.75426695888 -999910.36141117744
 3862.1982653354962 13721.037021827695 -999898.40312283987
 481.22977867429569 16301.739157995729 -999867.00201493024
 -3506.6608143944927 19344.910627357214 -999806.72020283598
 -7609.6626931008459 22363.581699736838 -999720.94268713612
 -10624.597928252209 24160.569006459486 -999651.63173184835
 0 -0 0
 0 -0 0
 0 0 -0
 0 0 -0
 0 0 -0
 0 -0 0
 -0 0 -0
 37937.901030849891 22889.945775059605 -999017.90076443972
 34610.687791357981 20904.955629672739 -999182.20716780692
 30349.019792576131 17787.841177382685 -999381.0733168195
 26334.481058969333 14715.920555479044 -999544.86482076393
 22993.699857774682 12141.448780926126 -999661.88033172046
 20387.728528336771 10136.728472658202 -999740.76002798171
 18439.277042625145 8630.5100795148537 -999792.73219898576
 17024.380187389299 7517.0359489425136 -999826.81732876971
 16014.817968265495 6699.8202335903998 -999849.30765304854
 15298.763432831145 6105.2817500163337 -999864.32748257346
 14786.770628213022 5681.5948761390964 -999874.52757536143
 14411.310471300081 5393.222944752988 -999881.60662988888
 14122.796416641366 5215.5231222341954 -999886.66604767554
 13883.419219057265 5131.2280148483478 -999890.45458482462
 13661.566892048388 5129.4989753197406 -999893.51924608264
 13428.21450404787 5206.2567258941517 -999896.28359452216
 13154.528577827004 5364.4167333506466 -999899.08561364643
 12809.139167134419 5613.7561139914951 -999902.20106572891
 12353.846706827873 5971.2710845191814 -999905.85876530362
 11737.866183296805 6463.3258561481052 -999910.21992793935
 10892.533081278527 7129.8271125066794 -999915.2555533991
 9728.7319703720786 8028.4818891278101 -999920.44446186046
 8137.3883553707892 9237.0537348779544 -999924.22700375284
 5996.2862369474324 10848.891158798131 -999923.17010457802
 3190.1892991906057 12950.505871904174 -999911.04958886071
 -349.3020121832551 15569.193620456692 -999878.73174606182
 -4549.4887318170786 18560.716197314006 -999817.38430901559
 -8963.3815678696865 21384.454685554625 -999731.14530291082
 -12404.923214768205 22820.218465455884 -999662.62084226415
 0 0 0
 0 0 0
 -0 0 0
 0 -0 0
 -0 0 -0
 40928.547167666598 20938.849722151615 -998942.65030534007
 36946.448111942234 19827.739947323218 -999120.52361088712
 32045.186918258776 17165.511461807975 -999339.00715004024
 27548.185087514499 14271.043646978973 -999518.60153356323
 23862.183903382072 11726.355829181701 -999646.48189163802
 21001.356539483109 9684.9762851102714 -999732.53636052995
 18855.33878032917 8125.1672596922408 -999789.20671133522
 17287.17722604132 6965.9688896904345 -999826.29930452607
 16165.706898059017 6118.0991038237662 -999850.60823297082
 15376.849692520578 5504.3944786030015 -999866.61817212251
 14827.339567293169 5065.5743252893071 -999877.23744373303
 14444.214829111848 4758.9164061204319 -999884.35199907492
 14172.166496454067 4554.5694422644847 -999889.19665830594
 13969.785396194065 4431.9078913790818 -999892.59587639046
 13805.31846878073 4376.9792122472581 -999895.12211779051
 13652.821263020574 4381.307656736376 -999897.1970231625
 13489.134835160519 4441.6047460731234 -999899.15260924131
 13291.409178276188 4559.8277063583018 -999901.26833270071
 13034.487594796508 4743.4385750513238 -999903.79633424024
 12687.623913371106 5006.1638486974944 -999906.97693483124
 12210.49308514364 5369.6966429933591 -999911.03115056199
 11549.080227505914 5866.3383928365447 -999916.09889018151
 10632.078956657619 6541.8023861853808 -999922.07882344467
 9368.0524488823394 7456.855659462165 -999928.31487911625
 7644.1644903317838 8685.2455415585991 -999933.06438937597
 5328.3683803865397 10303.265126201579 -999932.72334599693
 2279.2716583656743 12364.303551246361 -999920.96133564506
 -1618.7840260000683 14843.276733910019 -999888.52212338033
 -6345.6592638125721 17516.841186840422 -999826.43137863837
 -11453.072834376264 19724.957799918437 -999739.84274032107
 -15542.930094760191 20154.77145704256 -999676.04878359684
 0 0 0
 -0 -0 -0
 0 -0 -0
 0 0 -0
 39590.080039502791 18081.276375088069 -999052.39752833475
 34698.835856461235 16216.486134780956 -999266.23898120702
 29485.720518834689 13744.764983142082 -999470.69677957229
 25191.929292136214 11394.014308900198 -999617.69849101233
 21899.817663869791 9421.0192129293791 -999715.78080136282
 19453.769870581353 7867.1198268890703 -999779.80538889242
 17673.161182708602 6688.9867572628218 -999821.44247359026
 16399.944181758816 5817.578441619683 -999848.58734305878
 15505.322631264062 5183.9990408709782 -999866.34663041087
 14887.142674258193 4729.7615845732616 -999877.99372640916
 14465.902820945763 4409.4042655313788 -999885.64086579334
 14180.769000238206 4189.439041222814 -999890.67121914972
 13985.811584746005 4045.9832361793856 -999894.00792982499
 13846.448477059834 3962.3850280832726 -999896.28230605077
 13736.143235483003 3927.4482729370161 -999897.94155157544
 13633.492700409131 3934.4238150976821 -999899.31902468612
 13519.769329780789 3980.6099310326995 -999900.68035872746
 13376.713734021374 4067.3455406167718 -999902.25533795601
 13184.259741217895 4200.3079347092989 -999904.26177126076
 12917.8783943238 4390.2099946208673 -999906.92290532344
 12545.435979920536 4654.0210773734862 -999910.47205431596
 12023.594827780025 5016.6640509797444 -999915.12952310953
 11293.786265574052 5512.7993720660443 -999921.02659903665
 10277.561813526279 6187.9570530144565 -999928.0378660654
 8871.1693849670755 7097.6904140549368 -999935.46048959054
 6939.5883265832326 8302.5597952805147 -999941.45309348148
 4312.2843518756345 9855.3636286890596 -999942.13633160538
 791.23714530315715 11773.151993057036 -999930.38099456136
 -3791.1282741697114 13978.273056060685 -999895.11211365496
 -9326.2709273928922 16180.350735804279 -999825.59325147071
 -14454.553708368026 17696.570965080871 -999738.91454377712
 -0 0 -0
 -0 -0 -0
 0 0 -0
 43324.790757210074 16276.845867309277 -998928.43927603553
 38590.546986938243 15314.528477773394 -999137.74570914509
 32575.335195426331 13194.809852498187 -999382.18141502899
 27343.601883467385 11060.577774878449 -999564.90087203647
 23335.159072553775 9214.4680586526683 -999685.23242541414
 20393.932115667936 7720.7717603158362 -999762.21033618134
 18277.857480476636 6561.6331799392892 -999811.41466575337
 16776.207512594581 5688.2223204951288 -999843.08918366116
 15725.228905609352 5044.570988365529 -999863.62544069474
 15001.360645000123 4578.7542486743196 -999876.98952837638
 14511.877783238213 4247.3537385495138 -999885.67615974182
 14187.232188016129 4016.3503987103359 -999891.28977720276
 13975.329175265999 3860.2382668866317 -999894.88884330529
 13837.19426413898 3760.4818533635166 -999897.19013062911
 13743.561206048527 3703.978050509108 -999898.69240437378
 13672.059448084232 3681.8634929773402 -999899.75431123469
 13604.857921040741 3688.7672591039836 -999900.64548286831
 13526.620933395294 3722.4696403398325 -999901.58202990214
 13422.619085624388 3783.8730024682309 -999902.75307250931
 13276.759869992778 3877.2445447004011 -999904.34273589135
 13069.342823509007 4010.7424513648184 -999906.54874500667
 12774.347825360339 4197.2583530485208 -999909.59544348519
 12356.106784675383 4455.5220269549654 -999913.73375336372
 11765.085897579302 4811.2799761889755 -999919.21390621003
 10932.359679106406 5298.1705786916418 -999926.20372723811
 9762.1967045261717 5957.6824791283898 -999934.60062895122
 8122.3911048128402 6837.2298882420118 -999943.63793675683
 5833.4174114528414 7984.8107119309589 -999951.1058242789
 2663.4495756532801 9437.3791902813664 -999951.91979933553
 -1643.2329034726101 11197.071136791681 -999935.96064127155
 -7205.9412733927884 13177.866224263415 -999887.20276446175
 -13411.913237828867 15023.864663563299 -999797.18146925757
 -18019.545189531123 15460.294995487706 -999718.09790051065
 -0 -0 0
 0 0 -0
 42176.45677233427 13887.507573124134 -999013.65537591022
 36682.685986829987 12612.915447113857 -999247.3642260537
 30573.623994246278 10765.182312340574 -999474.54413088504
 25592.137158292386 9042.0794500832981 -999631.57378850807
 21897.474523260724 7620.2814815239399 -999731.17982768011
 19254.169117199923 6502.1051709364274 -999793.47847440594
 17394.819153647466 5647.6367539157482 -999832.74824627931
 16102.608503464657 5009.0578900190685 -999857.797558452
 15216.245166072116 4540.9569261781553 -999873.9148478877
 14618.438093995997 4204.0115729883455 -999884.30708476796
 14223.956106825968 3966.0723837609944 -999890.96872734989
 13970.500466182257 3801.9439838781664 -999895.17967568396
 13812.240793763178 3692.5223416488429 -999897.78841790196
 13715.272944488019 3623.712639252748 -999899.37493468111
 13654.314756812106 3585.4148063046123 -999900.3472792618
 13610.195165280369 3570.7275625860648 -999901.00134575157
 13567.824046444062 3575.4315828219619 -999901.56037464086
 13514.453105951863 3597.7334916752043 -999902.20315337321
 13438.028792610643 3638.2392318092425 -999903.08660262707
 13325.474546961221 3700.126019222113 -999904.36582482245
 13160.699828417746 3789.5160197829937 -999906.21337621554
 12922.155372615731 3916.0478452819884 -999908.83707956062
 12579.668739793975 4093.6248613965772 -999912.49325623061
 12090.213925334701 4341.2544370825854 -999917.48671435483
 11392.063128579393 4683.8383650838659 -999924.13840043091
 10396.650462546937 5152.6919961525164 -999932.67744601297
 8977.5723975404817 5785.4798447106141 -999942.96408185863
 6957.3902429815944 6624.9912083737163 -999953.85104138486
 4097.6905974871916 7715.1846878528422 -999961.84170047182
 113.9555934784745 9088.7356689069366 -999958.69009577762
 -5213.429441464491 10722.837610682487 -999928.91792718635
 -11626.479584709186 12385.52908382295 -999855.70140984864
 -17207.317543557037 13353.128333326697 -999762.77295499889
 0 0 0
 -0 -0 0
 40652.358004206602 12066.619845436298 -999100.48667499085
 34880.070822322617 10565.685448379321 -999335.65279661445
 28906.050173341329 8938.8176336205343 -999542.16409448639
 24211.404236987593 7559.2691794609582 -999678.28092559136
 20800.9339073427 6473.2988236608653 -999762.68061521603
 18400.233174958015 5643.8007444710001 -999814.77231148374
 16737.795261939889 5021.4837829744738 -999847.30379712791
 15601.040749360935 4561.8050688370531 -999867.89000449982
 14834.844085930103 4227.6128520941629 -999881.02026717109
 14328.347118725702 3988.8069564117918 -999889.38782642828
 14002.396179469273 3821.5046127469095 -999894.65895349591
 13800.067285729534 3707.1421970642987 -999897.90240786097
 13680.051410750366 3631.5835355175559 -999899.82888008526
 13612.104145499812 3584.2961714494468 -999900.92681309546
 13573.872350770362 3557.6501891765879 -999901.54171025078
 13548.568971590348 3546.3874002519715 -999901.92489825177
 13523.167004990721 3547.2697358181363 -999902.26563978591
 13486.853489685718 3558.9037314224456 -999902.71476138034
 13429.574368107218 3581.7167692700968 -999903.40425326885
 13340.482890647767 3618.077061445038 -999904.46595393401
 13206.135639673244 3672.547349302296 -999906.05077548849
 13008.212918333782 3752.2789547901293 -999908.34919972369
 12720.508022206903 3867.5366271197549 -999911.61151178495
 12304.777579659245 4032.346753667041 -999916.16279984836
 11704.921407571377 4265.2476040103629 -999922.39822784218
 10838.794029320314 4590.1426427979559 -999930.72316761478
 9587.0848426137982 5037.2643063264659 -999941.3551666562
 7779.6530960284845 5644.1834462806664 -999953.80902866204
 5183.4089744242965 6456.1644200191804 -999965.72451878828
 1507.4941909835086 7522.4237778229035 -999970.56986781931
 -3521.863892259601 8875.4301275100424 -999954.41056818992
 -9836.7131482353125 10455.466255621237 -999896.95584085886
 -15781.677908387343 11878.070157558233 -999804.90601503267
 -0 0 -0
 45599.528981961739 11931.419681963218 -998888.54442374897
 40266.916914570247 10726.838399729613 -999131.37791790988
 33496.67551495591 8996.2821192634601 -999398.33882065094
 27604.100653687008 7555.2253720036151 -999590.38220497069
 23157.22021110242 6460.51237917649 -999710.96069408627
 19980.870136528923 5644.8929337780573 -999784.42677026824
 17770.16527193179 5041.8749064845078 -999829.3858072164
 16255.623948212509 4599.1132543556942 -999857.29124076897
 15232.151889913663 4276.9916871353134 -999874.83661251864
 14551.772811981606 4045.4907461222183 -999885.9334507368
 14109.623648741966 3881.6507940616393 -999892.91992073029
 13831.484510942144 3767.8263302888208 -999897.24148082768
 13664.476450001808 3690.4858326562098 -999899.82618143619
 13570.56604600209 3639.3443753202469 -999901.29258327745
 13522.141216334539 3606.7039580362721 -999902.06689629587
 13498.95931386809 3586.9557026271868 -999902.45116522745
 13485.973946850505 3576.2181184316232 -999902.66484827118
 13471.664935689199 3572.1052858494418 -999902.87243696174
 13446.638859891975 3573.6065847618947 -999903.2039349355
 13402.292437313865 3581.0718747242227 -999903.77261097135
 13329.393597940087 3596.2880381547202 -999904.6924475641
 13216.393507887795 3622.6515834126271 -999906.09726021264
 13047.285235720512 3665.4363663326289 -999908.16224502434
 12798.718068628643 3732.1735202507148 -999911.12789918203
 12436.001823697759 3833.1590181409169 -999915.32279017661
 11907.460942522461 3982.1374182344803 -999921.17437100247
 11136.517746594896 4197.2409482524554 -999929.1780625775
 10010.94176665027 4502.3316687682955 -999939.75321240677
 8369.5185749319135 4928.9150455587869 -999952.82736502006
 5989.1927908521002 5518.6348298198882 -999966.8365697579
 2584.3889077258273 6325.4809194753516 -999976.65434004541
 -2144.0343833053312 7413.5108420400211 -999970.22104338591
 -8294.0546599321533 8829.1762174087253 -999926.62446032511
 -15076.153019457157 10419.55083944668 -999832.05718282412
 -20002.215097505996 11119.9359387973 -999738.09491081722
 45073.388104891725 9411.9538068045804 -998939.33990522393
 39108.119638737226 8604.16210414327 -999197.94003631151
 32264.182224664586 7415.7599617274191 -999451.86429840815
 26591.175035815722 6382.8336804857154 -999626.01448963
 22375.244258610743 5599.7668781316379 -999733.96013903513
 19386.664165881666 5027.192711084429 -999799.42217725108
 17319.075527673845 4612.8200535067253 -999839.37285647076
 15911.501256083506 4314.5415720007795 -999864.09519434243
 14967.441070758821 4101.2744687617478 -999879.57037611562
 14345.735653697473 3950.2815313960859 -999889.29144399613
 13946.666687029554 3844.731023041802 -999895.34878990287
 13699.924176704875 3771.9889305044458 -999899.03699176584
 13555.644673788116 3722.4972740777571 -999901.18887394189
 13478.156512008245 3689.0280589120525 -999902.36041776498
 13441.707309811216 3666.1758072751236 -999902.93511897814
 13427.546276168672 3650.0024148873954 -999903.18455507117
 13421.851994316163 3637.7975369171081 -999903.30548414658
 13414.172350477196 3627.9251983089989 -999903.4444079625
 13396.10886401071 3619.748008970505 -999903.71621054353
 13360.076741720572 3613.6132236658668 -999904.22048760508
 13297.962290361391 3610.9020436621668 -999905.05828571296
 13199.533466061463 3614.1369889750085 -999906.35077996342
 13050.388514195269 3627.1613002104732 -999908.26132227283
 12829.197039220813 3655.4013084740509 -999911.02091366262
 12503.84962990752 3706.2487255428291 -999914.95511609234
 12026.040198889721 3789.6113010354898 -999920.50344180968
 11323.668294477438 3918.723778895579 -999928.20649299689
 10290.5487958385 4111.3286568020849 -999938.59890603088
 8773.534851635306 4391.3099301975672 -999951.86958338355
 6559.5131555186263 4790.5527857576371 -999967.01115145278
 3371.6738051771108 5349.5678819289842 -999980.00676974957
 -1095.8275995314589 6110.6967232544303 -999980.72908803017
 -7023.0095240181718 7080.2244902107195 -999950.27264279185
 -13988.262510051676 8089.321878716155 -999869.43716841948
 -19806.35882858972 8583.9063115160516 -999766.98520324647
 44547.91654107513 6946.9960628387098 -998983.09414001217
 38285.45927413593 6580.7866621592793 -999245.17354605009
 31428.744373816728 5962.7412034122099 -999488.20890715183
 25903.236752867604 5367.0794605801366 -999650.04715839867
 21846.880811648411 4893.5383220206741 -999749.35212856845
 18988.023647219128 4544.0423530620792 -999809.38515152293
 17017.540999299199 4293.7649825316275 -999845.97157792852
 15680.639076611827 4117.1106119974629 -999868.57484289282
 14787.451063635486 3993.6831435858903 -999882.68401147402
 14202.098424491238 3908.2804749362267 -999891.5069866681
 13828.779474395376 3849.69088799989 -999896.96706126467
 13600.060997704404 3809.5843327390285 -999900.25772977492
 13468.229182482219 3781.7145416694111 -999902.14793139324
 13399.243184458834 3761.3886784216902 -999903.15142882394
 13368.61761136747 3745.1163778258046 -999903.62243892159
 13358.600484329065 3730.3811898398812 -999903.81139851559
 13356.191484743897 3715.4897086923911 -999903.89902492496
 13351.64158382445 3699.4814169337947 -999904.01914596919
 13337.20810106397 3682.0797771859275 -999904.2760027498
 13305.963046009185 3663.6831878260573 -999904.75985111576
 13250.51729551989 3645.3868009465828 -999905.56301406422
 13161.483845379264 3629.0433578723691 -999906.79835037363
 13025.508183537273 3617.3647244808208 -999908.62122946547
 12822.593294062082 3614.085778031259 -999911.25580483594
 12522.385327306825 3624.211430080531 -999915.02386814065
 12078.928766296382 3654.3931006016073 -999920.36927493638
 11423.323256824893 3713.4798288588277 -999927.85627430689
 10453.701323721103 3813.278291539119 -999938.08760208043
 9022.4498272494438 3969.4086843009541 -999951.41841682082
 6922.3669243150753 4201.666175680336 -999967.21288125927
 3878.9142719009756 4531.8502102751463 -999982.20802059432
 -428.83510633368996 4973.3228848275685 -999987.54100235389
 -6251.3667080862133 5499.629338538185 -999965.33664493554
 -13346.561313218257 5982.7786534633706 -999893.03210928314
 -19582.829766507704 6186.9091220211722 -999789.09522651427
 44272.199715980343 5050.581311087617 -999006.73869635561
 37884.277722950712 4956.0272673281188 -999269.8430830061
 31000.223197814248 4734.577287364601 -999508.16401848139
 25532.154691229491 4493.3290948188032 -999663.90305465611
 21554.413505689099 4291.235044024631 -999758.46711104305
 18764.724838390131 4141.3890347666174 -999815.34995148086
 16846.809968836889 4037.1759217130693 -999849.93184199953
 15547.350516780414 3967.4548525005698 -999871.2613101257
 14679.866121194975 3922.0764027539449 -999884.55275964492
 14111.627028780291 3893.0773199340215 -999892.84722493205
 13749.287396364649 3874.4847530810653 -999897.96752668254
 13527.242965607738 3861.850296647699 -999901.04500897264
 13399.129339295741 3851.8513981039619 -999902.80856379005
 13331.919209700309 3842.0103277268577 -999903.74481088307
 13301.895240635742 3830.5146320735003 -999904.18878043524
 13291.90683902407 3816.1022812643114 -999904.37671607442
 13289.431790376064 3797.9930487784709 -999904.47856357275
 13285.12705390986 3775.8446217416731 -999904.61964957137
 13271.61131613018 3749.7302042738056 -999904.89740598272
 13242.316945256922 3720.1267588671321 -999905.3963744865
 13190.239830142615 3687.9186398499919 -999906.2040158211
 13106.450341418815 3654.4123716468353 -999907.42883012223
 12978.161329739854 3621.3742155278524 -999909.22236835607
 12786.122944912064 3591.0949320204713 -999911.80565949262
 12500.983325108295 3566.5040597613665 -999915.49916215276
 12078.164298386064 3551.350195488134 -999920.74978918699
 11450.640923574823 3550.4720408726025 -999928.13590313913
 10519.00392477001 3570.1384160946386 -999938.30043064174
 9138.4556239103149 3618.3114358887269 -999951.69705899444
 7103.7898007685271 3704.2992479203854 -999967.90665378293
 4137.9357900547711 3836.3942307429265 -999984.07965662319
 -95.965853421791621 4014.5970610468439 -999991.93686798913
 -5891.6633950889709 4215.1526081904622 -999973.76005119691
 -13071.107703221323 4373.1134014129866 -999905.006499412
 -19474.630421602458 4406.2893438241927 -999800.64182023844
 44278.243363867055 3521.6079603480889 -999013.03066675947
 37833.646258658766 3604.4220006225282 -999277.55070991965
 30912.870534541737 3666.3053036421675 -999515.35888186074
 25441.442928486282 3708.4625896297025 -999669.43550702708
 21476.618081525787 3741.9556087818605 -999762.34808278433
 18702.046704552296 3773.1806363378282 -999817.98171314457