# OOMMF OVF 2.0
#
# Segment count: 1
#
# Begin: Segment
# Begin: Header
#
# Title: Oxs_TimeDriver::Magnetization
# Desc: Oxs vector field output
# Desc:  MIF source file: /mnt/gpfs/work/plgrid/groups/plggspinsym/MF/switching-obrazki/p-ap/Anisotropy.mif
# Desc:  Iteration: 27800, State id: 194750
# Desc:  Stage: 0, Stage iteration: 27800
# Desc:  Stage simulation time: 4.09326e-09 s
# Desc:  Total simulation time: 4.09326e-09 s
# meshunit: m
# meshtype: rectangular
# xbase: 1.0000000000000001e-09
# ybase: 1.0000000000000001e-09
# zbase: 3.4999999999999998e-10
# xnodes: 35
# ynodes: 35
# znodes: 5
# xstepsize: 2.0000000000000001e-09
# ystepsize: 2.0000000000000001e-09
# zstepsize: 6.9999999999999996e-10
# xmin: 0
# ymin: 0
# zmin: 0
# xmax: 7.0000000000000005e-08
# ymax: 7.0000000000000005e-08
# zmax: 3.4999999999999999e-09
# valuedim: 3
# valuelabels: Magnetization_x Magnetization_y Magnetization_z
# valueunits: A/m A/m A/m
#
# End: Header
#
# Begin: Data Text
 -0 0 -0
 0 0 -0
 -0 -0 0
 -0 0 0
 0 0 0
 -0 0 -0
 0 0 0
 0 -0 0
 -0 0 0
 0 0 0
 0 0 0
 -0 -0 0
 0 0 0
 19736.724167542921 33194.900031568781 -999254.00190893817
 17483.137561048261 33191.34037326173 -999296.08966774587
 15479.147122137414 33056.282455416083 -999333.61706419103
 14031.701257236427 32917.590758403087 -999359.56671184686
 12866.939553658329 32829.005345090132 -999378.15579217789
 11650.972671148967 32812.385947362753 -999393.61723209824
 10047.289092734405 32872.687124654789 -999409.04459740187
 7797.9282713553075 32969.329533763696 -999425.94304168876
 5314.118126408508 32958.980255147333 -999442.57752463187
 0 0 0
 -0 0 -0
 -0 0 -0
 -0 0 0
 0 -0 0
 -0 0 0
 -0 -0 0
 0 0 0
 0 -0 0
 0 -0 -0
 0 -0 0
 -0 -0 0
 0 0 -0
 -0 -0 -0
 -0 -0 -0
 -0 -0 -0
 -0 0 -0
 0 0 -0
 0 0 -0
 -0 -0 0
 0 0 0
 0 0 -0
 0 0 0
 24003.751234395997 31715.894543526934 -999208.64786088653
 22370.294094959405 30941.782608717269 -999270.82216539269
 21230.963259816181 29443.790546854343 -999340.93751696823
 19608.670002257008 28789.003740358039 -999393.16253633634
 17379.183917790804 27950.583607714198 -999458.21765711613
 15535.212277644738 27462.406614271706 -999502.11275536614
 14195.287532679284 27218.657443464333 -999528.70819143543
 13115.687284156227 27142.905866183071 -999545.51742689742
 12006.668586483 27229.290300593275 -999557.10475148947
 10587.887817480152 27533.073082653558 -999564.81856765517
 8674.8367434405191 28176.483302873963 -999565.32202560792
 6591.8565056026664 29266.480156781814 -999549.90899256384
 5660.9191638042284 30125.84665238157 -999530.08326798177
 4556.8016627070874 31365.576325791211 -999497.59188322094
 2620.8189932843975 31906.920969305815 -999487.40847599623
 -0 0 -0
 0 -0 0
 -0 0 -0
 0 -0 -0
 -0 0 0
 -0 0 0
 -0 0 -0
 -0 0 0
 -0 0 -0
 -0 0 0
 0 -0 -0
 -0 0 -0
 -0 0 0
 -0 0 0
 -0 -0 0
 0 0 -0
 0 -0 -0
 -0 -0 0
 28142.524208289291 29678.197331346273 -999163.25139305799
 26172.521570286626 28588.889238027808 -999248.55492854654
 23805.450416172505 27586.362561297319 -999335.92606846674
 21548.049614331561 25906.696100736182 -999432.10107288556
 19913.807668754474 24099.228898263777 -999511.21425957035
 18358.208517862888 22565.075533781095 -999576.8072270233
 16704.058203928009 21407.201605877119 -999631.28510412539
 15304.801491602537 20738.693683809775 -999667.77963260969
 14236.63208841069 20426.351352692571 -999689.9931864856
 13361.652660714361 20367.225894111838 -999703.27715155168
 12485.853332997965 20543.274900791941 -999710.99690005288
 11427.583525183765 21016.85723643671 -999713.8100710013
 10096.940607327611 21917.673075265589 -999708.79129741481
 8656.3264979314226 23341.515703897814 -999690.07280066842
 7445.963038038888 25044.265132599012 -999658.61293663841
 5915.6083939737509 26867.47389195341 -999621.50058109232
 3654.5182705621864 28627.763344491916 -999583.46107871446
 1543.1979805113524 29759.646566374977 -999555.89237232623
 -683.91313698332556 30563.853566333848 -999532.58231935429
 -0 0 -0
 -0 -0 -0
 0 0 -0
 -0 0 0
 -0 0 -0
 0 0 -0
 0 -0 -0
 -0 -0 -0
 -0 -0 0
 0 0 0
 0 0 0
 0 0 -0
 -0 0 0
 0 0 0
 -0 -0 -0
 30689.023935395679 26702.154189897276 -999172.24679807434
 27851.479252289279 25927.709324680396 -999275.76223614777
 24756.422245720514 23949.585559948839 -999406.59238825238
 22126.895080180882 21892.125614158125 -999515.45028088707
 19989.661358717003 19936.734356784022 -999601.39058624301
 18392.506531325034 18221.566242290741 -999664.78893035604
 17084.800536735394 16816.356311281026 -999712.61858147604
 15920.907862608958 15785.28240887726 -999748.64318592742
 14958.59574006643 15154.504849438465 -999773.26499374525
 14209.135591310858 14854.42623897645 -999788.70091977878
 13595.180791219454 14820.007741646983 -999797.74876211421
 13001.38527154966 15037.690564838675 -999802.39639815676
 12319.246856983262 15549.208535535303 -999803.20977220044
 11490.678719340825 16430.73963929417 -999798.97734368301
 10540.766796971375 17726.66881280165 -999787.30610471999
 9479.7191823653538 19361.33180875632 -999767.6098748222
 8039.5786501536722 21271.794873273331 -999741.40452318813
 5989.5250196578991 23445.339123815742 -999707.17795933026
 3418.0982729165307 25694.018962976617 -999664.01055240899
 211.55836671111692 27776.116930984073 -999614.1468443179
 -2589.3918333424576 28733.554370258676 -999583.7523205271
 -0 -0 -0
 0 -0 0
 -0 0 -0
 -0 -0 -0
 0 -0 -0
 0 -0 -0
 0 0 -0
 0 -0 -0
 -0 0 -0
 0 0 -0
 -0 0 0
 -0 0 0
 -0 0 -0
 32060.690494644863 25235.630640421587 -999167.29083331523
 29424.170668799401 23691.913369871909 -999286.20095612633
 25845.502865880761 21287.964436839717 -999439.25906067248
 22665.480232643185 18875.880949853869 -999564.89390343765
 20210.053543661965 16772.606930400765 -999655.05720349401
 18377.623084397452 14999.981316197463 -999718.59216995724
 17041.203300211244 13551.044772297129 -999762.95519270969
 16033.9120257047 12412.914617171542 -999794.39547131828
 15240.821414061767 11588.04935388259 -999816.70043803356
 14628.730522931441 11070.373480712269 -999831.70937627554
 14171.518148825631 10824.974193797676 -999840.98136006645
 13816.327468739131 10818.973794577139 -999846.01759536401
 13492.574797045532 11045.662870542346 -999847.96032051614
 13130.822008829093 11528.333636640051 -999847.32786407671
 12678.792844320376 12306.618892380469 -999843.8854858533
 12099.436596448504 13407.035430340793 -999836.91421902296
 11321.694593449818 14822.782914492345 -999826.03703754488
 10175.89165963421 16557.215473779699 -999811.13708774315
 8475.0467868862106 18639.875621583164 -999790.34233121702
 6079.5966541625266 21067.048170085385 -999759.58009209496
 2875.1580641171909 23801.189889475056 -999712.577107016
 -689.13272941758873 26498.849181082871 -999648.60630531551
 -3212.9467316787 28187.011018138059 -999597.50368994172
 0 -0 -0
 -0 0 -0
 0 0 0
 0 0 -0
 0 -0 0
 -0 0 0
 -0 0 0
 0 -0 0
 -0 -0 -0
 -0 -0 -0
 0 0 0
 32935.504302228728 24865.422512638601 -999148.11880903121
 30409.086659882396 22842.550408289288 -999276.49093699607
 26794.887785326941 19925.993446330303 -999442.3388939196
 23321.96851634634 17135.681928699763 -999581.13937256788
 20520.633407036046 14797.137944473494 -999679.92293194833
 18444.328087910108 12918.072352302363 -999746.43293591519
 16961.547538402359 11422.413731717837 -999790.8953224388
 15925.191671963334 10246.694978923064 -999820.68067840044
 15202.764356573189 9349.0865701467756 -999840.72258346318
 14699.467018345753 8707.2708445557691 -999854.04390031646
 14361.71817852206 8304.8944844141206 -999862.37541901914
 14151.058451361601 8122.0558648810966 -999866.88101628516
 14025.301874755969 8143.039141113346 -999868.48226197634
 13935.848843933534 8365.6155929562283 -999867.89557058481
 13832.131116711911 8802.8639082164573 -999865.58183377003
 13664.538368797806 9476.8520339250208 -999861.72527339729
 13377.672285863138 10408.135366626097 -999856.34398267535
 12888.766153099448 11612.929607119922 -999849.49846113904
 12068.340820346866 13119.252046351394 -999841.10756439099
 10758.221301337742 14977.083332007544 -999829.95936774043
 8793.9295320113215 17250.056748387371 -999812.53360095632
 6043.2855567571996 20002.810203361671 -999781.65930549451
 2602.4905326046432 23181.353498713735 -999727.8889242789
 -961.48388761185504 26350.257540077317 -999652.30929373938
 -3418.4311500108402 28402.090873097815 -999590.73403193825
 0 -0 0
 0 0 0
 0 -0 -0
 0 -0 0
 0 -0 -0
 -0 -0 0
 0 -0 -0
 0 -0 0
 0 0 -0
 33877.381769695436 24891.787801410937 -999115.97019789438
 31251.008402477506 22723.552498389428 -999253.22848399205
 27546.252188113158 19556.719368141992 -999429.20645633759
 23929.616727461962 16474.692554891782 -999577.88988577493
 20904.010460928857 13890.994610205213 -999684.98168942623
 18590.903200859044 11847.284474424496 -999756.98055515368
 16926.181768045215 10260.216317319797 -999804.0969769411
 15779.803739249761 9031.7228619893776 -999834.69922587438
 15022.953249042572 8087.7912778962746 -999854.43865990918
 14548.710959869191 7380.6825434875445 -999866.92141234386
 14278.590931254203 6882.430863406119 -999874.36910165288
 14159.689746368038 6575.7941260110038 -999878.12363202474
 14152.799573509918 6448.1720564538655 -999879.05235651508
 14221.73692526573 6492.0722992284354 -999877.79013041896
 14328.46947574502 6707.6109571520137 -999874.84362680616
 14431.81026209725 7102.9459416949112 -999870.62713708531
 14485.710669844751 7691.9189079044654 -999865.4902385138
 14433.683867194062 8491.1927904602635 -999859.77437589574
 14198.869919789469 9521.5289463327827 -999853.85561067122
 13676.222290135247 10815.653798021911 -999847.97973331541
 12735.623554542271 12425.83439516209 -999841.68873490207
 11231.663850878584 14425.938450883325 -999832.8570450925
 9028.9300325440654 16902.96826645725 -999816.36718261952
 6072.7132641588241 19904.753761179862 -999783.43801611266
 2493.8811296239564 23316.090406875152 -999725.03243894503
 -1206.1501325583615 26630.45613695437 -999644.61885601899
 -3866.6517444010178 28708.087497199569 -999580.35930911556
 0 -0 0
 0 -0 0
 0 0 -0
 0 0 -0
 0 0 -0
 0 -0 0
 -0 0 -0
 35458.371188018253 24628.889347304517 -999067.62620065466
 32451.234878527248 22688.575161689037 -999215.76544407604
 28448.054940775426 19581.552949387096 -999403.45754563867
 24591.481180949359 16432.857386293956 -999562.51442891196
 21347.593824347136 13720.682865689476 -999677.95969482581
 18819.809388867878 11546.137424084587 -999756.22102848219
 16960.827701618848 9857.0438587751469 -999807.56598959677
 15664.434841847517 8559.0520742356784 -999840.67136153055
 14811.680196872621 7564.3830800691949 -999861.68755401555
 14295.661141909795 6808.1426319659931 -999874.63377486402
 14030.182157898782 6248.0973353076079 -999882.05067813105
 13950.558089559247 5859.1219292561573 -999885.51975674101
 14009.787436258011 5626.8934669267646 -999886.02546785434
 14171.607901734564 5543.3851628689463 -999884.21150171966
 14403.784627247289 5605.2597805926507 -999880.54889131815
 14673.547726283698 5813.7730347000761 -999875.43576198805
 14944.71594400743 6174.557691076936 -999869.25660441862
 15174.944899556687 6696.9110199751931 -999862.42675184377
 15311.770440760758 7393.5874971379326 -999855.43182496715
 15287.503832197002 8282.7981721726446 -999848.83231467509
 15015.207161559421 9392.9871303929995 -999843.14537164487
 14388.334687885243 10768.181395789237 -999838.49800572125
 13284.199127063352 12471.022400354957 -999833.98804693692
 11574.369758401584 14578.698172524619 -999826.7327513753
 9148.4363966774199 17159.897322006615 -999810.90413907496
 5953.4747685738312 20219.949639469934 -999777.83020767046
 2080.5743637155238 23590.781634454223 -999719.53378544748
 -2021.5834481176319 26721.329041409586 -999640.87740279164
 -5210.6270525822665 28448.342261783455 -999581.68309962319
 0 0 0
 0 0 0
 -0 0 0
 0 -0 0
 -0 0 -0
 38259.711365209456 23040.605454867429 -999002.16465557483
 34612.261766299038 22038.530211987785 -999157.79260410927
 29983.957144846976 19450.480674370941 -999361.11647165462
 25638.810208993647 16532.946565514569 -999534.54822178569
 22027.328215862544 13888.520580235729 -999660.89540791931
 19212.451853965606 11699.14000440776 -999746.97389735375
 17119.247749492864 9964.4220211928132 -999803.80157822696
 15633.589886395988 8617.877694563349 -999840.64882925514
 14637.902716588183 7580.6622594412938 -999864.12345066585
 14025.712863734121 6784.7944711131022 -999878.61560423847
 13708.000127625175 6180.4854130905815 -999886.93977497239
 13614.332747784334 5735.2839381462209 -999890.87227656087
 13690.928132006917 5430.1137163199755 -999891.53029311739
 13896.828629331118 5254.8894786301589 -999889.62605410325
 14199.051271817885 5205.0983114208984 -999885.64040821604
 14567.898026629426 5279.8409852355953 -999879.942606239
 14973.211184353315 5480.9232354252508 -999872.8731330377
 15381.508903284601 5812.4076859423621 -999864.80341131659
 15753.45256436881 6280.4685220586925 -999856.18188189727
 16041.122584529427 6893.9390258267995 -999847.5663774634
 16185.104353588384 7666.1405187140845 -999839.62348299194
 16112.010240470816 8618.0845380260889 -999833.05193662515
 15733.122161155463 9782.1264522173387 -999828.37470694678
 14944.243907581696 11204.409773169218 -999825.55017146142
 13627.29340237812 12943.270631199879 -999823.36871064024
 11654.777190987235 15058.627585011091 -999818.6855144708
 8899.6970996010896 17585.752613617104 -999805.74948164192
 5266.5757936984346 20480.111070222723 -999776.38911406591
 790.10124337487866 23501.225101028231 -999723.49585211603
 -4101.8209343504714 25984.183979665348 -999653.93874477048
 -8111.0298541946249 26648.066268958555 -999611.97059600556
 0 0 0
 -0 -0 -0
 0 -0 -0
 0 0 -0
 37280.099726303211 20516.627696280619 -999094.22085825796
 32601.979639803678 18818.484330523304 -999291.23661276419
 27519.877900040301 16425.641656012918 -999486.2953620503
 23269.151201699402 14059.546255439414 -999630.36956739333
 19978.651272679464 12003.817492257778 -999728.34403098584
 17533.34337702909 10322.612499872877 -999792.9913443086
 15780.838129549276 8988.9181750075149 -999835.06864781049
 14581.305977049473 7945.8297895625174 -999862.11514636304
 13817.161847786319 7134.7134120941646 -999879.08364111662
 13392.862186506012 6507.0847492273751 -999889.13840011286
 13232.59030199763 6028.0234091851926 -999894.27515496733
 13277.246685642807 5675.2135139830725 -999895.74790175946
 13481.010310301233 5436.168451014345 -999894.34963579336
 13807.607986529352 5305.1424694920079 -999890.59672799637
 14226.493961175318 5280.5394397980899 -999884.85475718521
 14709.323212347499 5363.129685673226 -999877.42881345679
 15226.993974599183 5555.0051738381981 -999868.63165718748
 15747.278679159499 5859.0883612131274 -999858.837185418
 16232.833744011421 6279.1453416439781 -999848.52224845428
 16639.361696729546 6820.4414238838444 -999838.29353606398
 16913.806077364901 7491.2204705701242 -999828.88775021839
 16992.599040516132 8304.9591401075213 -999821.12361738447
 16799.876937049678 9282.91132710905 -999815.77887738554
 16245.298230235034 10456.001232423057 -999813.36374527344
 15220.962957241274 11864.523564725345 -999813.76034101273
 13597.113158417118 13553.253868430656 -999815.69692785619
 11217.870724877404 15558.339858712945 -999816.03179647063
 7905.9637167997189 17878.658026698486 -999808.90640405531
 3510.0495434928139 20415.327976563829 -999785.42394646443
 -1878.9273208774794 22849.673795388473 -999737.14647379529
 -7013.6472354783564 24461.348855980552 -999676.17315038689
 -0 0 -0
 -0 -0 -0
 0 0 -0
 41152.301039380211 18932.86777395758 -998973.49045758892
 36610.875112607158 18101.143160793588 -999165.64814837452
 30715.943417140978 16132.997830929093 -999397.94736680458
 25490.465386568623 14084.116633774869 -999575.8469636119
 21428.811442768201 12251.765658835291 -999695.30371928378
 18421.792803877335 10713.986237745317 -999772.89823678869
 16261.142513516559 9467.2230663482696 -999822.95779381238
 14759.333276525298 8474.5221653718872 -999855.16178859666
 13768.062365436797 7690.2694299223167 -999875.64237498899
 13173.742141454877 7072.602789101793 -999888.20915529248
 12889.736791435018 6588.672608476686 -999895.21654956718
 12849.724233135867 6215.7910299389996 -999898.11907464068
 13002.478213854291 5940.3434140284799 -999897.81871970382
 13307.62883226349 5755.7042873468281 -999894.88391681411
 13732.011799709904 5659.9621099263695 -999889.69225652446
 14246.448890043357 5653.921964010995 -999882.52903050976
 14822.961288242199 5739.6068483672489 -999873.66038508748
 15432.479185872184 5919.2955663777348 -999863.39093206893
 16043.029039072077 6195.0662656546338 -999852.11025091889
 16618.306991005098 6568.8391531420211 -999840.32836495107
 17116.473818255217 7042.9632070337466 -999828.69682425773
 17488.991014679759 7621.3831875270544 -999818.00829530833
 17679.243054623359 8311.3085161099061 -999809.16504889366
 17620.545361914061 9125.1050209904679 -999803.1050359389
 17232.869692068911 10081.896916328165 -999800.67191252904
 16417.408003810549 11208.100759443798 -999802.40407382639
 15048.114092776808 12535.782809697437 -999808.18580945756
 12960.519982429118 14097.233620853629 -999816.62965066964
 9943.202229086095 15912.981775778997 -999823.93937154522
 5755.3459975298047 17968.033755134038 -999821.99703518371
 260.20425895075374 20163.202663639335 -999796.66810411448
 -6019.6920640439839 22161.064255534835 -999736.2904979072
 -10936.887085421471 22784.563226024788 -999680.5730729592
 -0 -0 0
 0 0 -0
 40385.998625491906 16734.028614291386 -999044.01474677667
 35048.139911784187 15657.483995201233 -999262.96393074829
 28957.456742813112 13980.762888967891 -999482.8682714029
 23882.896672101007 12370.994443651247 -999638.21742819785
 20053.710155465134 11005.971702600284 -999738.32441088406
 17282.226206993353 9894.3130745064536 -999801.69395041245
 15331.934427664388 9003.659325163695 -999841.92045816011
 14006.855410814826 8294.067570199275 -999867.49944412219
 13160.021816029201 7728.5558986332298 -999883.53484269511
 12683.795437459952 7277.2099157044931 -999893.07605820685
 12498.960918148872 6918.4554049287426 -999897.95026831445
 12546.140164402654 6638.700162549213 -999899.25593888049
 12779.538187292563 6431.0277059005784 -999897.65740617958
 13162.337009141967 6293.4549754441996 -999893.56699047203
 13663.165941668221 6227.1335603530051 -999887.26399733278
 14253.288499347287 6234.7540825934402 -999878.97848113789
 14904.354142741526 6319.3012826466829 -999868.95474301383
 15586.643652104285 6483.223761464892 -999857.50202182378
 16267.766751511033 6728.0362165686738 -999845.0346396619
 16911.716986853316 7054.3633632165484 -999832.10079797718
 17478.14086054777 7462.436120821536 -999819.39701088099
 17921.578427678112 7953.0294611368081 -999807.76469731983
 18190.322763349624 8528.7738958761674 -999798.16571826057
 18224.348741824695 9195.6817122381271 -999791.63456731488
 17951.542140328191 9964.6375614730405 -999789.20184859587
 17281.2368362995 10852.516741741476 -999791.76918685308
 16094.112820975177 11882.520042519527 -999799.8725994844
 14228.491549190969 13083.140754056711 -999813.1732760095
 11467.354046366045 14484.436189584625 -999829.33588660276
 7545.3133979210907 16106.844369724275 -999841.80639247969
 2243.1133723469402 17921.81774127312 -999836.87514076405
 -4228.6854073857885 19705.248242731195 -999796.89007888886
 -10082.018881260434 20728.663828397293 -999734.3023979757
 0 0 0
 -0 -0 0
 39373.462876490215 15071.48011865503 -999110.89520040085
 33640.354499951347 13798.547444414478 -999338.74468947807
 27567.830869732803 12375.79178474581 -999543.32296246081
 22690.70295875275 11152.012386116176 -999680.33121542272
 19074.886726323668 10175.136527785404 -999766.28033406835
 16488.399923083718 9410.3250405327835 -999819.77298441541
 14688.347757126177 8811.2049069454115 -999853.29679321137
 13482.257190816104 8337.6986324733898 -999874.347867048
 12729.444791800966 7958.986613780361 -999887.30153321498
 12329.167555661041 7653.2054911350479 -999894.70449297538
 12208.645573055581 7406.4310408945266 -999898.04167850432
 12313.810658013319 7211.3653292893114 -999898.17795471859
 12602.686149789219 7065.831657729268 -999895.61771456653
 13040.71241947017 6971.1918893293687 -999890.66517456516
 13597.378977870281 6930.8260368978972 -999883.53068513831
 14243.749404930411 6948.8005124011925 -999874.40700036346
 14950.629936856636 7028.819871582632 -999863.52786553034
 15687.262256923965 7173.5194796447313 -999851.21414196317
 16420.446116242118 7384.1276084208112 -999837.90866760316
 17113.996521366986 7660.5087957126161 -999824.19841092918
 17728.364447555381 8001.5848976940315 -999810.82197240682
 18220.165164318005 8406.1134279144117 -999798.661150545
 18541.205149977766 8873.7711973569531 -999788.7176280414
 18636.432912462013 9406.4636733239695 -999782.07715954864
 18440.020412629288 10009.758485980974 -999779.86096051882
 17868.625235138068 10694.355796731683 -999783.14798075054
 16810.920658903724 11477.53685151167 -999792.8080829659
 15113.331321146892 12384.496685946648 -999809.08750531613
 12565.203196534821 13448.893284161819 -999830.60712205712
 8897.424762356437 14709.168574628968 -999852.22717781714
 3842.752795718523 16187.172232631119 -999861.59477502771
 -2572.1829955359349 17809.986016864965 -999838.08102748147
 -8816.7295450277852 19189.381631543041 -999776.99158998916
 -0 0 -0
 44703.035766576868 14856.440792314554 -998889.84615934326
 39446.369127794795 13869.416191625025 -999125.42919151916
 32642.241313396466 12376.952325837685 -999390.46179817116
 26569.42730348833 11160.557299583686 -999584.66749621928
 21871.650477684583 10264.408062022865 -999708.09381164762
 18431.391588453025 9613.8236779894487 -999783.90575083857
 15983.170784573414 9138.0065016763983 -999830.50317983725
 14285.419277719375 8783.0935983303225 -999859.38214476081
 13153.687463396496 8510.7975804354155 -999877.26588349836
 12455.482812850618 8295.198082605606 -999888.01904846763
 12097.123429675697 8119.9701205300589 -999893.85721183871
 12011.525909915859 7976.2370711565982 -999896.04604053719
 12148.874685037248 7860.8035884949559 -999895.30082445662
 12470.001411861289 7774.5710270080226 -999892.02172541316
 12941.799180205857 7721.0677329453392 -999886.441025701
 13534.063646633595 7705.1122151028476 -999878.72282940475
 14217.310391080873 7731.6653678317452 -999869.03614217555
 14961.299941176014 7804.9311677872465 -999857.61113947444
 15734.095558482972 7927.7504651360905 -999844.782458517
 16501.54439985962 8101.3152067274214 -999831.01958498009
 17227.050604366217 8325.209559515326 -999816.9430517091
 17871.468682775416 8597.7714977246851 -999803.32512569346
 18392.834189014902 8916.7494642331494 -999791.07579008094
 18745.528698166672 9280.2216413637434 -999781.21738714061
 18878.298202816928 9687.7375018958883 -999774.85345404642
 18730.38214276381 10141.664083870857 -999773.13398310298
 18224.860768947143 10648.760618896553 -999777.2043546671
 17258.392689752622 11222.087414396574 -999788.0838636905
 15687.146947872234 11883.405028783556 -999806.33029880235
 13311.126801989571 12666.081070564058 -999831.1778963363
 9866.4317368784486 13617.680598178515 -999858.59615242982
 5057.6649467179432 14798.617191384064 -999877.70299897681
 -1263.1348828345122 16260.785074263847 -999866.9868332668
 -8452.7912160387841 17896.676951368518 -999804.1104510203
 -14138.437374498166 18740.149699050777 -999724.41771613457
 44528.493750574373 12389.711690085343 -998931.2830663285
 38687.332559026043 11797.479457394951 -999181.72009796079
 31778.584041457565 10858.603980514858 -999435.94708010892
 25883.582922473364 10080.920367349183 -999614.13314320566
 21371.840446760616 9543.4343234955577 -999726.04612325248
 18073.898592324273 9193.8509979065639 -999794.38250747486
 15723.931644314889 8971.0204241504853 -999836.12595574604
 14090.037123676655 8827.8950948660968 -999861.76000587572
 12997.851791569876 8732.0011120268973 -999877.39648688131
 12323.318480609827 8662.4440545916623 -999886.54250601179
 11979.376634267041 8607.1062128025678 -999891.20021035068
 11903.923721234254 8560.4610986703046 -999892.50177497452
 12050.655801668247 8521.8292234660912 -999891.07412829529
 12382.582414221903 8493.8893138070307 -999887.25639297941
 12867.608491694704 8481.3516329962113 -999881.2386109574
 13475.585553698376 8489.7800454435364 -999873.15806994506
 14176.400117682089 8524.5926159232895 -999863.17113914934
 14938.79439109645 8590.2818451444709 -999851.50871515006
 15729.734217550347 8689.8920381923763 -999838.5175806192
 16514.173763979736 8824.772883089794 -999824.68735696608
 17255.081222345358 8994.6154311309656 -999810.66160811472
 17913.527443299397 9197.7558852581897 -999797.2328533486
 18448.565744976433 9431.7275810038827 -999785.32342537947
 18816.49471007552 9694.0314000383132 -999775.95754350908
 18968.963543790524 9983.1105331873023 -999770.23156631168
 18849.213384236718 10299.533544640793 -999769.28676748124
 18385.6489982737 10647.442969638574 -999774.27445855027
 17481.965712948695 11036.373619167818 -999786.26682513987
 16003.600979246361 11483.565810876131 -999805.98741554061
 13762.199195449941 12016.688345831455 -999833.08660721174
 10505.773281996986 12675.891535952313 -999864.46606603439
 5940.1025539683233 13509.983412878084 -999891.09183442185
 -141.34977363910886 14544.32820755859 -999894.21567345411
 -7413.1768143944719 15641.081063383264 -999850.1894747467
 -13826.984094102103 16218.605329794127 -999772.85987969162
 44452.768288006431 9837.2438948464332 -998963.05238186172
 38293.073675094391 9698.7852205026538 -999219.48243304389
 31337.809916245013 9363.9749675966559 -999464.9857010796
 25559.625749708317 9066.4141271952321 -999632.18518933689
 21175.368839214061 8888.6923120275496 -999736.26267306402
 17971.961934944768 8819.572669689298 -999799.59177933913
 15681.192467547531 8823.9641210286482 -999838.10582513129
 14078.580935828024 8869.3159708961066 -999861.55481298594
 12998.054042387354 8931.654170197753 -999875.63033854123
 12322.626476275243 8995.4282084054757 -999883.61080081412
 11970.797306934541 9052.0166535964527 -999887.37416087964
 11884.61892287242 9098.1752831319136 -999887.98324591096
 12020.676790658228 9134.6509045907223 -999886.02424593666
 12343.749883718834 9164.9398813698881 -999881.81087355467
 12822.545831459327 9194.1611314817619 -999875.51711174927
 13426.950283125478 9228.0485209149538 -999867.2712548353
 14126.339592236985 9272.0918489381838 -999857.22722920275
 14888.654330949088 9330.866329250146 -999845.61953621579
 15680.009970761226 9407.5798992591499 -999832.80338652397
 16464.68860555052 9503.858411217414 -999819.27902217512
 17205.344478226194 9619.7658167641202 -999805.69923711498
 17863.232524728501 9754.0492426973269 -999792.86027013545
 18398.176669651239 9904.5820161133379 -999781.6793432046
 18767.899736814801 10068.985859396491 -999773.1650045584
 18926.189910514851 10245.413880859467 -999768.38859301852
 18819.254748379259 10433.505402570981 -999768.46200294304
 18379.490331204554 10635.537775743251 -999774.51441381802
 17515.923635645151 10857.813479948074 -999787.62760179467
 16100.970839126219 11112.216976068161 -999808.62037287629
 13954.675070749741 11417.468373276182 -999837.44101709605
 10832.210990433226 11798.210184135023 -999871.724493452
 6434.0211468928064 12276.036657781775 -999903.94653479499
 498.23928004932793 12837.181548970844 -999917.47585863224
 -6829.485433705654 13356.411049420713 -999887.47587545565
 -13625.579095055939 13552.941757735834 -999815.31362748973
 44653.944772158204 7777.8085383559483 -998972.23730723641
 38348.862856768523 7919.2248792819883 -999233.03117686417
 31337.174902517974 8006.8156694137788 -999476.79931650497
 25591.833189484205 8100.4520149788195 -999639.65545148053
 21262.631618990614 8238.7668179548582 -999739.97780320584
 18101.971471770845 8420.984710270388 -999800.68295903096
 15833.16668956777 8629.3816134207409 -999837.40908487234
 14233.618635925714 8844.4221927623475 -999859.58028945397
 13141.927746334375 9050.5138257955514 -999872.68086221826
 12445.881724811441 9237.2373662096215 -999879.87952250149
 12068.054980197037 9398.9817418327857 -999883.00375154475
 11953.682986657966 9534.1321700872977 -999883.09806037729
 12061.641779562806 9644.1648918408009 -999880.74632984132
 12358.1644994258 9732.7390917435896 -999876.2671250765
 12812.688083251034 9804.819047318053 -999869.84180318716
 13395.245462023046 9865.859294814647 -999861.60653331783
 14074.961439199555 9921.0963570414533 -999851.72266069485
 14819.314349596068 9974.9854293654407 -999840.43106282305
 15593.936161861979 10030.816162391116 -999828.0911647242
 16362.759523794641 10090.519191964342 -999815.20368676283
 17088.347522135016 10154.666690811886 -999802.41604197025
 17732.196066503428 10222.647336655269 -999790.51140930981
 18254.747262039054 10292.998196304552 -999780.38507990842
 18614.737413930292 10363.864614135286 -999773.01516957849
 18767.394855762246 10433.576895861699 -999769.43610188761
 18660.85132782007 10501.331213181582 -999770.72105081764
 18230.02492445485 10567.977359927121 -999777.96737364342
 17387.180762600558 10636.873951790945 -999792.2498487687
 16008.638435817418 10714.64983223351 -999814.44267144077
 13918.182883695454 10811.302902657439 -999844.68789645692
 10871.417184868 10938.093399746878 -999881.07812938001
 6557.0494117448052 11099.746753002875 -999916.89690945379
 671.73375303454247 11275.793217021399 -999936.20059536386
 -6716.3915655105875 11393.962069918958 -999912.53003084613
 -13689.182630213436 11347.51323967069 -999841.90761449502
 45129.671477777345 6037.9452742069298 -998962.89018620376
 38759.704476871862 6352.7402463266526 -999228.36629082356
 31695.47832814576 6731.7552524915345 -999474.90219853458
 25933.450816937078 7130.0160066521194 -999638.2440665575
 21604.021629533901 7535.9982494338483 -999738.20322113088
 18441.738568103017 7940.3970840495085 -999798.40586626914
 16162.157682096855 8332.326849619998 -999834.66482630547