# OOMMF OVF 2.0
#
# Segment count: 1
#
# Begin: Segment
# Begin: Header
#
# Title: Oxs_TimeDriver::Magnetization
# Desc: Oxs vector field output
# Desc:  MIF source file: /mnt/gpfs/work/plgrid/groups/plggspinsym/MF/switching-obrazki/p-ap/Anisotropy.mif
# Desc:  Iteration: 31900, State id: 223450
# Desc:  Stage: 0, Stage iteration: 31900
# Desc:  Stage simulation time: 4.69703e-09 s
# Desc:  Total simulation time: 4.69703e-09 s
# meshunit: m
# meshtype: rectangular
# xbase: 1.0000000000000001e-09
# ybase: 1.0000000000000001e-09
# zbase: 3.4999999999999998e-10
# xnodes: 35
# ynodes: 35
# znodes: 5
# xstepsize: 2.0000000000000001e-09
# ystepsize: 2.0000000000000001e-09
# zstepsize: 6.9999999999999996e-10
# xmin: 0
# ymin: 0
# zmin: 0
# xmax: 7.0000000000000005e-08
# ymax: 7.0000000000000005e-08
# zmax: 3.4999999999999999e-09
# valuedim: 3
# valuelabels: Magnetization_x Magnetization_y Magnetization_z
# valueunits: A/m A/m A/m
#
# End: Header
#
# Begin: Data Text
 -0 0 -0
 0 0 -0
 -0 -0 0
 -0 0 0
 0 0 0
 -0 0 -0
 0 0 0
 0 -0 0
 -0 0 0
 0 0 0
 0 0 0
 -0 -0 0
 0 0 0
 21303.749467294292 32392.509479661407 -999248.15515878971
 18850.839231256152 31713.495206692212 -999319.21830917092
 16545.0130001336 31035.794862977436 -999381.32961450133
 14743.576353713142 30596.549478247602 -999423.07263557182
 13194.154685872463 30430.228641309259 -999449.80637697002
 11581.797136556404 30539.412199332895 -999466.46080676804
 9588.9804487139681 30930.793185700524 -999475.53120967303
 6969.6466875558763 31573.904331654237 -999477.11959319317
 4148.39295443212 32225.856109294808 -999472.00312661007
 0 0 0
 -0 0 -0
 -0 0 -0
 -0 0 0
 0 -0 0
 -0 0 0
 -0 -0 0
 0 0 0
 0 -0 0
 0 -0 -0
 0 -0 0
 -0 -0 0
 0 0 -0
 -0 -0 -0
 -0 -0 -0
 -0 -0 -0
 -0 0 -0
 0 0 -0
 0 0 -0
 -0 -0 0
 0 0 0
 0 0 -0
 0 0 0
 26474.154637180443 30154.454812322841 -999194.58965269523
 24250.806085389944 28578.100096459886 -999297.34843993513
 22434.177008418901 26586.93860042603 -999394.7380278788
 20628.200749604508 26128.83597620848 -999445.72702291468
 18356.105010650594 24980.616656069124 -999519.39560987009
 16371.754758102097 24139.060330227756 -999574.54520036385
 14782.93370901754 23663.550758157362 -999610.67483119166
 13390.986102922587 23509.153789845546 -999633.933587329
 11950.589515614301 23665.193112279932 -999648.50924972026
 10223.367795309019 24170.490632702757 -999655.57575271721
 8051.7467091000462 25099.58894426738 -999652.52963705407
 5687.7048130419325 26399.9250539409 -999635.28047538747
 4160.2461614634312 26959.685092683976 -999627.86462342041
 2162.8318413903503 28717.535260337394 -999585.22664503055
 -493.71032011337587 30064.951259399375 -999547.82524694118
 -0 0 -0
 0 -0 0
 -0 0 -0
 0 -0 -0
 -0 0 0
 -0 0 0
 -0 0 -0
 -0 0 0
 -0 0 -0
 -0 0 0
 0 -0 -0
 -0 0 -0
 -0 0 0
 -0 0 0
 -0 -0 0
 0 0 -0
 0 -0 -0
 -0 -0 0
 31495.598678581122 27577.2248791741 -999123.37773262057
 28699.457312975963 25675.961835778126 -999258.26798368234
 25762.828752175446 24431.469109498848 -999369.49121525511
 23063.847823898413 22294.370426535097 -999485.37756729592
 20982.752164431462 20250.194472001313 -999574.73644317966
 19190.931036008078 18778.691282253749 -999639.46946871653
 17455.009992326381 17574.738238044018 -999693.17853130947
 15947.492229356278 16772.113664756955 -999732.15097585565
 14685.633788707795 16335.112548713651 -999758.71902086714
 13551.000010395741 16211.081568831567 -999776.76069865061
 12388.343036726294 16389.176293806988 -999788.93965537276
 11052.751209130964 16907.372892104777 -999795.96790174954
 9463.9929194607776 17835.475421707724 -999796.14354852459
 7707.9481942123157 19184.749326641944 -999786.24361805909
 5965.8298098832302 20726.830968050155 -999767.37661953212
 3750.9021549763311 22723.521501316391 -999734.75097327842
 823.05320188739859 24846.424017384863 -999690.94113979791
 -2144.8917744927717 26076.115006738244 -999657.65923411574
 -5309.0855631507811 27670.021460385145 -999603.01296207833
 -0 0 -0
 -0 -0 -0
 0 0 -0
 -0 0 0
 -0 0 -0
 0 0 -0
 0 -0 -0
 -0 -0 -0
 -0 -0 0
 0 0 0
 0 0 0
 0 0 -0
 -0 0 0
 0 0 0
 -0 -0 -0
 33733.721590211084 23656.028419951061 -999150.8536487713
 30469.010523058892 22471.711822110952 -999283.07379117026
 26844.791305643255 19958.622065944379 -999440.34868769697
 23788.738677672292 17679.355277791365 -999560.67164984392
 21334.797583012278 15585.547001410232 -999650.89763214777
 19450.115221370914 13838.409335240834 -999715.05512568203
 17930.887600947892 12510.480055530772 -999760.95700853528
 16623.512019813948 11527.47461969388 -999795.36715120845
 15509.821434464977 10880.276620255885 -999820.51640268799
 14556.097996687166 10531.16470802595 -999838.59426459577
 13684.86210646472 10445.781227612764 -999851.79411934444
 12801.308478790872 10617.270904944457 -999861.69046511722
 11817.668419997488 11069.254677154971 -999868.89856321015
 10676.140210136913 11841.855539131653 -999872.88716496562
 9361.6420137631903 12954.236842301347 -999872.26554527448
 7833.1961533580297 14379.612281807667 -999865.92490625847
 5859.4424845931226 16192.715912081243 -999851.72044916754
 3256.8312131012513 18362.487669740767 -999826.09092633112
 33.39062896835248 20689.249367309538 -999785.95401499956
 -3879.2972449362055 23184.323819664336 -999723.6809148367
 -7318.8819183830665 24400.276180400702 -999675.4775874943
 -0 -0 -0
 0 -0 0
 -0 0 -0
 -0 -0 -0
 0 -0 -0
 0 -0 -0
 0 0 -0
 0 -0 -0
 -0 0 -0
 0 0 -0
 -0 0 0
 -0 0 0
 -0 0 -0
 35014.139603712334 21081.185359558276 -999164.4477520443
 31882.613470194632 19319.148725778115 -999304.89313863625
 27954.911149369924 16650.572994969902 -999470.50049592252
 24502.699392670678 14055.401843407668 -999600.9520811257
 21801.275776929117 11907.837895392398 -999691.40627053275
 19742.79639215007 10163.084085829256 -999753.43645945145
 18184.033582047316 8789.5389696608981 -999796.02166011231
 16969.236404120074 7755.9427814786759 -999825.93003353907
 15981.293489261496 7013.1750610689733 -999847.69521861325
 15158.933104692036 6529.2058262235769 -999863.77883109986
 14452.669487607493 6273.652777258505 -999875.87310901366
 13805.110571282923 6224.9969276793618 -999885.32759280188
 13154.185742991109 6378.8066992067515 -999893.13340103149
 12440.923575192573 6748.287941997256 -999899.83699891064
 11614.60782700325 7357.2791782960767 -999905.48119715683
 10626.743008987232 8228.6667890802837 -999909.67660879029
 9398.8101367155996 9385.0301420213946 -999911.78789793607
 7784.0265202640539 10881.122158086542 -999910.50105082535
 5620.3004616401204 12763.199736591083 -999902.75174899143
 2761.4077539422779 15059.198162612412 -999882.79071995034
 -908.15632416684696 17810.632923820503 -999840.96565751091
 -5015.9071188900334 20630.597931205772 -999774.58414623409
 -8207.4828368420131 22446.683364248009 -999714.35101804347
 0 -0 -0
 -0 0 -0
 0 0 0
 0 0 -0
 0 -0 0
 -0 0 0
 -0 0 0
 0 -0 0
 -0 -0 -0
 -0 -0 -0
 0 0 0
 36127.343938277671 19347.925229080611 -999159.88350678654
 32967.843934504192 17244.928112497364 -999307.62717028474
 28955.784661625046 14265.123075999651 -999478.89862580702
 25290.335159843584 11503.050766599212 -999613.96487372252
 22351.212880548956 9234.4814049519482 -999707.53104893141
 20121.373903388569 7461.6366567959976 -999769.70062642044
 18457.507516007394 6092.3743172112017 -999811.08385108213
 17214.091479078554 5050.6853083215337 -999839.06986697926
 16265.929330053827 4281.0157071238764 -999858.5362177717
 15519.227378514364 3738.7822887891825 -999872.5794262843
 14911.10054832857 3392.1687307746638 -999883.06929947564
 14393.218301042205 3217.5687197918355 -999891.23534436082
 13920.613772223815 3200.5453270373259 -999897.98130700004
 13448.950651092453 3337.9506960285344 -999903.98729654786
 12934.740952231932 3637.7355859038439 -999909.72560341924
 12333.946763236048 4116.3970882076337 -999915.46094270085
 11595.008043572567 4796.5612232810217 -999921.27129534585
 10644.193069483848 5710.1791932202686 -999927.04484251281
 9372.8428964867126 6908.3453256808907 -999932.20999270701
 7645.913322441902 8457.1183252910141 -999935.00646746939
 5311.25216392739 10439.689720510269 -999931.39938647312
 2228.5968177512023 12949.934830888635 -999913.66254497156
 -1580.8397416043397 15961.144686934054 -999871.36312927457
 -5688.2938537106465 19116.238922073415 -999801.08657797927
 -8856.5633148403922 21240.283237950112 -999735.17075984774
 0 -0 0
 0 0 0
 0 -0 -0
 0 -0 0
 0 -0 -0
 -0 -0 0
 0 -0 -0
 0 -0 0
 0 0 -0
 37594.290796598514 17895.239996778033 -999132.83885825623
 34194.0388130512 15709.216620405412 -999291.74329763395
 29981.401920802338 12597.354899849661 -999471.07121136354
 26129.749804576491 9700.1395124132141 -999611.49626671942
 22996.330665782159 7341.3741074524251 -999708.59404234635
 20590.266822598795 5514.8581150258924 -999772.78781338374
 18796.831765624098 4130.2934344875193 -999814.79274499626
 17474.772850126392 3089.3303432027437 -999842.53177781322
 16498.33892462085 2315.7281000160992 -999861.21147692064
 15766.544301020389 1755.2638534381579 -999874.15964690712
 15203.617266788777 1369.2108810254003 -999883.48085342848
 14754.848091305521 1130.6842763163763 -999890.50201053021
 14378.334165039856 1021.5440604341142 -999896.10458005627
 14038.168273943687 1031.5385901848961 -999900.92797219125
 13700.739275636901 1158.3986667304391 -999905.46945990343
 13332.423153158938 1407.5686265436575 -999910.12858327758
 12896.543547803247 1791.6180334940191 -999915.23104178254
 12348.012639166634 2330.4906884103848 -999921.04458152805
 11625.613813989996 3054.2531411199257 -999927.75571098027
 10645.247722586295 4007.9429715827991 -999935.30545433855
 9298.5785745746507 5254.3316633624599 -999942.96259099885
 7454.5704731703117 6877.3498394666567 -999948.56439631258
 4972.2233236004486 8977.3446045645542 -999947.3407530376
 1748.1448196730655 11628.522722358717 -999930.85833420744
 -2189.9789563161958 14786.482055888559 -999888.27572913456
 -6459.8141984297508 18045.556065444565 -999816.29748009739
 -9860.6204498120696 20197.808250612172 -999747.37644377747
 0 -0 0
 0 -0 0
 0 0 -0
 0 0 -0
 0 0 -0
 0 -0 0
 -0 0 -0
 39983.514806366271 16251.096641872926 -999068.17605289863
 36033.700537232849 14270.237906307715 -999248.68413007678
 31374.447205176028 11244.195586228518 -999444.45174716332
 27184.90222235792 8346.4236182515579 -999595.57737314247
 23792.782262436805 5951.8679245877393 -999699.1941481299
 21180.911134165242 4091.3597870737221 -999767.28781182831
 19227.989221307376 2685.5808633293855 -999811.51828028657
 17793.252014433918 1637.7023744673843 -999840.3463121918
 16747.770602432418 863.31304806496416 -999859.3735473149
 15985.5784534782 298.70816689343667 -999872.17785821937
 15424.316413341847 -101.30123998468241 -999881.03302404925
 15002.214949294921 -368.13891051195736 -999887.39266997355
 14673.573914194521 -523.14046875466227 -999892.20046594762
 14403.402326306481 -580.091552995597 -999896.09734972811
 14162.754931428655 -546.45615304834337 -999899.55383449665
 13925.311103490749 -423.8430218131835 -999902.94832436799
 13664.587523368878 -208.19859591469927 -999906.61349006032
 13350.852045504695 110.26981789605253 -999910.86732279591
 12947.098161218702 547.91864831312967 -999916.03269192495
 12404.112160287874 1129.724822244435 -999922.42785295122
 11655.641902979303 1892.3953181113579 -999930.27999545541
 10614.762077460375 2887.4877242674115 -999939.49278977909
 9171.4391279270567 4184.2671881839988 -999949.18701523053
 7194.0149321072049 5868.2809700988682 -999956.90378516447
 4540.9056725709297 8026.5126971129775 -999957.47673068359
 1091.0936033494606 10709.163942281102 -999942.05998268037
 -3167.8397095117066 13830.301214136072 -999899.33871360321
 -7892.1123090549518 16935.255494513724 -999825.44060682727
 -11878.902314040239 18789.158331707764 -999752.89907506609
 0 0 0
 0 0 0
 -0 0 0
 0 -0 0
 -0 0 -0
 43668.062789420313 13776.341658860032 -998951.10626232217
 38991.08716120584 12543.018594259738 -999160.83180163312
 33544.008143278152 9912.6639682237474 -999388.08208360022
 28738.380763592584 7184.3881450520093 -999561.14872381277
 24904.126161984103 4846.8688259829514 -999678.09436972858
 21978.527217148381 2994.9416815118784 -999753.95706428157
 19800.792401227449 1583.2746244245864 -999802.69146554475
 18206.379291099183 529.18788168851131 -999834.11009691714
 17052.707476445357 -247.95089936936819 -999854.56126782484
 16224.031975288992 -814.15922594586334 -999868.05026024277
 15630.033894449234 -1218.8169228623353 -999877.10071076558
 15202.06210049427 -1497.0628835128398 -999883.32124834228
 14888.834228273057 -1673.212986748611 -999887.7551873629
 14652.175594154438 -1763.6140268693414 -999891.09577789635
 14462.966184860068 -1778.6195996674785 -999893.82392404787
 14297.607926724651 -1723.7232237068179 -999896.29821588099
 14135.094057159708 -1600.0777088747213 -999898.81431438914
 13954.375939230433 -1404.6356499854478 -999901.6463586993
 13731.612010798361 -1129.9052303215979 -999905.07856783865
 13436.971674681539 -763.17665071412387 -999909.4285752154
 13030.936129101841 -285.04360376481873 -999915.05311888526
 12460.263226546796 332.68889956537072 -999922.31256154156
 11653.767442961083 1129.3798794911061 -999931.45475351124
 10517.812204537486 2157.6826466144944 -999942.35835473379
 8932.059399403779 3483.6250509113461 -999954.04027954699
 6747.1148950041725 5181.0001785257309 -999963.81618423783
 3788.4321995383361 7314.149221088077 -999966.07492586528
 -116.33149156769166 9892.7244983974397 -999951.05903688236
 -5035.7004504069882 12760.868397618477 -999905.8965516265
 -10627.925425218515 15344.158613583606 -999825.78682368342
 -15450.764278304097 16289.475667275545 -999747.93166362785
 0 0 0
 -0 -0 -0
 0 -0 -0
 0 0 -0
 41911.824778072179 10579.047304526664 -999065.30452313309
 36630.233125794279 8543.8044018344717 -999292.36433963268
 31072.983568863154 6099.3587577851567 -999498.50801032875
 26555.383864361833 3891.9351475370991 -999639.76733052393
 23130.657316981979 2092.6322813454894 -999730.26041138696
 20605.146073933513 697.25109918375324 -999787.44830897753
 18770.73616523957 -354.77112767646565 -999823.75126882363
 17453.298138435275 -1133.7285727149979 -999847.03682294057
 16516.547439822662 -1702.1423210128798 -999862.14368391153
 15856.318721471735 -2109.7011256544779 -999872.05497391673
 15393.993731263965 -2393.3820959870486 -999878.64097556565
 15070.786003899382 -2579.5646354213577 -999883.10179516301
 14843.029339203174 -2686.5213694965628 -999886.22706934356
 14678.269757687747 -2726.5046430220809 -999888.55107424443
 14551.932933007787 -2707.2362144162157 -999890.45005940145
 14444.466170047494 -2632.8068200144812 -999892.2070529958
 14338.829671455185 -2504.1260283118463 -999894.05804639508
 14218.148484598332 -2319.0138896789836 -999896.22782979277
 14063.284731879869 -2071.9758939939188 -999898.96036471822
 13850.143784095872 -1753.5938177251953 -999902.54446415044
 13546.567749693055 -1349.4988116364314 -999907.33038375142
 13108.710904807593 -838.93685832780943 -999913.72522001225
 12476.673486833328 -193.08924546757896 -999922.14463689458
 11569.037536939108 626.54201754240705 -999932.88015524775
 10275.979169286838 1668.8194837699752 -999945.80817844486
 8451.0782018915997 2991.0700564166959 -999959.81558117783
 5903.8454147169186 4651.4008100209967 -999971.75414099754
 2402.8949901512256 6687.6786828715331 -999974.75020597444
 -2273.0327034845054 9066.2249243819679 -999956.31748989376
 -8091.4007889496334 11561.818670540486 -999900.42183324532
 -13720.711113119654 13498.117872600737 -999814.75429223792
 -0 0 -0
 -0 -0 -0
 0 0 -0
 45967.306540370628 8245.8069106610492 -998908.91146180872
 40767.133703244588 7281.6726437062389 -999142.14106559008
 34441.019393325252 5145.2911275360038 -999393.48715226352
 28994.052228251374 3061.5019717120231 -999574.89571370429
 24828.044598517194 1321.4922936648343 -999690.86314696888
 21772.770493742475 -48.078381794355565 -999762.94397896936
 19572.887355114926 -1091.8825829149018 -999807.83647309407
 18006.679913192187 -1870.6427616667702 -999836.1166582061
 16903.001556170209 -2441.8196354095367 -999854.1523918676
 16134.167503710061 -2853.1583690402299 -999865.7650536315
 15605.65919032714 -3141.597592766112 -999873.28885504289
 15247.539792072106 -3334.3828071061475 -999878.18979192898
 15008.060704760379 -3450.9372251291825 -999881.41754217551
 14848.970310640911 -3504.7351106958286 -999883.60568244022
 14741.95507692629 -3504.8429523298651 -999885.18882739195
 14665.790332259014 -3457.014138364354 -999886.47537966899
 14603.917292833876 -3364.377470908245 -999887.69697598414
 14542.26378658266 -3227.7757119051839 -999889.04585854663
 14467.13708199392 -3045.8368822550137 -999890.70643862733
 14363.046340136763 -2814.7864147023283 -999892.88420173817
 14210.298609207768 -2528.0077035533036 -999895.83286984847
 13982.220459371099 -2175.3134067473256 -999899.87774907157
 13641.776079466115 -1741.9481712687182 -999905.42930917535
 13137.247213090581 -1207.3578124847636 -999912.97372460109
 12396.443922474187 -543.886122406092 -999923.01321949915
 11318.818804976305 284.26216301401013 -999935.89971351798
 9764.9841690065477 1321.0749530021596 -999951.44874396164
 7544.4128097411967 2616.424050789984 -999968.11757202691
 4407.316682058452 4218.313090321265 -999981.39052401145
 65.289883110479821 6152.5389692808621 -999981.07082157431
 -5668.88030701158 8367.468700066469 -999948.92332739581
 -12326.6991190191 10535.737561127135 -999868.51671750937
 -17722.105608170481 11347.00247603985 -999778.56173635845
 -0 -0 0
 0 0 -0
 44468.126786698871 5667.6793910255183 -998994.72626756295
 38714.581374121844 4234.1150197937686 -999241.33894621558
 32398.592307850435 2351.7889013640829 -999472.26089843689
 27276.742859552352 663.57586589540415 -999627.70017944381
 23470.492324163672 -689.59532164526593 -999724.29221678607
 20733.367780328746 -1728.3898494038795 -999783.54663847818
 18795.832436112505 -2507.7340475890123 -999820.19781207666
 17439.83483133974 -3082.4813584668536 -999843.16293593287
 16502.622662080707 -3498.8633396434279 -999857.70057573868
 15865.397958569494 -3793.170849408295 -999866.94164899923
 15441.544596147263 -3992.6679357833191 -999872.80056177115
 15167.566285148012 -4117.1887323022138 -999876.48921750754
 14996.694059167872 -4180.8057921078334 -999878.80267071584
 14894.432609356945 -4193.3047935191726 -999880.27886950248
 14835.349899942108 -4161.332055601285 -999881.29080849851
 14800.585052420514 -4089.2084985169158 -999882.10357819765
 14775.740855960317 -3979.4277527978602 -999882.91396388889
 14748.937660044119 -3832.9082038799711 -999883.88208461541
 14708.892766495386 -3649.0283038520729 -999885.15993889095
 14642.902292070436 -3425.4867626713499 -999886.91933283338
 14534.619442546258 -3157.9709495906063 -999889.37991016882
 14361.462973821617 -2839.6384926459468 -999892.83667525242
 14091.424716640417 -2460.3812587344596 -999897.68390246655
 13678.882102562235 -2005.8853776499609 -999904.42773710913
 13058.86247737514 -1456.4966690994881 -999913.66863757267
 12139.019722708577 -785.99436768640385 -999926.0104692874
 10788.655029759611 39.527881280679978 -999941.79998647713
 8825.0148074148983 1062.1197117728043 -999960.49472735031
 6001.0377584068019 2330.1207914394345 -999979.27882677643
 2012.3669438448901 3888.1349234012678 -999990.41634712729
 -3413.1882269188195 5736.4195677986609 -999977.7215701706
 -10136.652058212065 7683.8699267542861 -999919.09994159022
 -16322.638606718916 9018.6552636321012 -999826.10254291235
 0 0 0
 -0 -0 0
 42506.402174735369 3460.5585118436616 -999090.20128762443
 36687.220249374142 1794.5989098744835 -999325.185955566
 30656.401787393581 115.25318522407169 -999529.97541151964
 25895.641791354556 -1249.2389761029197 -999663.87107777118
 22412.189263187884 -2295.2620056177198 -999746.18056022422
 19938.369172346444 -3079.0265180334641 -999796.46980295342
 18209.863506099795 -3658.0634039162624 -999827.49484259658
 17018.911856787829 -4079.6910127248461 -999846.84465194552
 16212.543811589667 -4380.3416434334003 -999858.97307082452
 15680.022678186981 -4587.1658693154859 -999866.53849306249
 15340.997743456082 -4719.933952896964 -999871.17970852414
 15136.664082070803 -4792.7731530440824 -999873.94741835829
 15023.676638231998 -4815.6418598603386 -999875.54162192985
 14970.035140299064 -4795.4965496705008 -999876.44299720356
 14952.198112672471 -4737.1640698160718 -999876.98795810633
 14952.8843561381 -4643.9297082657322 -999877.41506961582
 14959.194397294474 -4517.8970160835534 -999877.89810033096
 14960.839943716421 -4360.1487012802936 -999878.57381358102
 14948.343288240496 -4170.7622499426097 -999879.56863573904
 14911.126862553325 -3948.6846883355533 -999881.02601505583
 14835.391238241764 -3691.4866981537371 -999883.13521769398
 14701.652012410195 -3394.9669758156201 -999886.16133404872
 14481.690846649602 -3052.5997028079628 -999890.47513479029
 14134.556249024905 -2654.7765761895412 -999896.57789242046
 13601.049247985189 -2187.819137357737 -999905.10795113747
 12795.984892454318 -1632.7035895175063 -999916.79506327992
 11597.505749819027 -963.47931254014293 -999932.28249116801
 9833.4455069607247 -145.44638194033377 -999951.63992805744
 7267.6916435382182 866.27212794195532 -999973.21475666284
 3599.7077963762854 2124.9264895184324 -999991.26335743291
 -1474.9931079507767 3676.2416068891384 -999992.15479071578
 -7964.7365583193541 5490.6815095904321 -999953.20659924753
 -14318.227464160329 7200.1603801458932 -999871.56477858918
 -0 0 -0
 47706.40161006149 2037.0539007137727 -998859.32425783842
 42052.407913875693 1170.876469714515 -999114.72015826963
 35212.34815475886 -411.64168060663252 -999379.76820053475
 29308.505030389799 -1783.639049339112 -999568.82212513289
 24830.076477107006 -2836.3064200757017 -999687.66255667713
 21603.115822664753 -3621.1403524929124 -999760.06758086721
 19335.787196214304 -4199.9421603677201 -999804.22474570095
 17769.835556304661 -4622.7105836131541 -999831.4175355573
 16707.486620616593 -4926.7849584523919 -999848.28183119628
 16004.355896970221 -5139.2837598545257 -999858.71419654018
 15556.189827192366 -5279.5987367925318 -999865.05629271735
 15287.285578071851 -5361.4293711444416 -999868.76837650687
 15142.060344911704 -5394.3781297157975 -999870.8010003618
 15079.358472153417 -5385.1705244235145 -999871.79822539829
 15068.679277114279 -5338.5693727681792 -999872.20912569412
 15087.588032347105 -5258.0155969433908 -999872.35083251924
 15119.751989556084 -5146.0507166461703 -999872.44749607751
 15153.243211361148 -5004.5492674765756 -999872.65874550596
 15178.886121567652 -4834.8159788190487 -999873.10493410088
 15188.54095688991 -4637.5638482502927 -999873.89266104682
 15173.24611125503 -4412.8075691487638 -999875.14207115141
 15121.158259031323 -4159.6594652117865 -999877.01634052931
 15015.161512994851 -3876.0318109506038 -999879.7534214498
 14829.941810437185 -3558.2028979342463 -999883.69924608537
 14528.163396099466 -3200.2195460001185 -999889.33940871386
 14055.234240542211 -2793.0599253084188 -999897.31933168869
 13331.961357773054 -2323.4833304696444 -999908.42592287809
 12244.394955720156 -1772.4392321022765 -999923.4636967656
 10630.654687552918 -1112.933355813602 -999942.87364841974
 8266.7591718314125 -307.38482848164449 -999965.78251826297
 4860.7275849375346 694.72603917567528 -999987.9452688793
 86.980173360674542 1955.0010843008349 -999998.08520077181
 -6235.3141350927626 3519.7981251880046 -999974.36561083642
 -13523.109517392304 5247.5832031641467 -999894.78865503974
 -19432.574544686315 6078.3760148049023 -999792.69270763721
 47082.616826108322 -788.4785430080608 -998890.68746004079
 40965.608019124345 -1504.1353144170164 -999159.42498511181
 34018.673096153419 -2537.4807687870662 -999417.97616018751
 28296.941861979874 -3469.167990577796 -999593.54137304879
 24038.129882826957 -4202.2128267199059 -999702.21052026039
 21001.926592327458 -4753.6958502486013 -999768.13384663058
 18888.071357125122 -5160.9605590738511 -999808.28424579266
 17444.214134008769 -5457.3415638859806 -999832.94445437333
 16480.303027234637 -5668.0916781879278 -999848.12464136677
 15858.337045554248 -5811.2513272308088 -999857.36107914953
 15478.666762690946 -5899.3582841900179 -999862.79481091048
 15268.67251193576 -5941.0103531514305 -999865.77700994792
 15174.717253534964 -5942.099930204241 -999867.20088454499
 15156.810486286586 -5906.7473230667056 -999867.68196194072
 15185.14465797037 -5837.9681859338089 -999867.65599712089
 15237.753642382921 -5738.1295511440276 -999867.43357966607
 15298.743933137232 -5609.2219030074657 -999867.23371841258
 15356.729558049381 -5452.9985374856515 -999867.20901539281
 15403.267402004001 -5271.0029705628085 -999867.46915830148
 15431.181685558347 -5064.526190578672 -999868.10590510012
 15432.733919809914 -4834.4954205458143 -999869.22063727386
 15397.579875443342 -4581.312610917128 -999870.95472802932
 15310.424470895063 -4304.6172347030652 -999873.52258822415
 15148.172786061494 -4002.9636482188225 -999877.24703749246
 14876.25870863835 -3673.3599060605034 -999882.59478492476
 14443.644088849842 -3310.6260913306514 -999890.20442262478
 13775.834876583756 -2906.4861300079097 -999900.88444396784
 12765.181542975757 -2448.3238790738674 -999915.52435711201
 11258.122272424953 -1917.5645640962171 -999934.78668813279
 9040.7237332214518 -1287.9493143600566 -999958.30238112586
 5829.573403311756 -525.06418591481167 -999982.87004405016
 1292.3136310086936 407.44255229808903 -999999.08195760148
 -4826.978118948341 1515.1030950264098 -999987.20229053474
 -12259.493805726142 2654.3095084486786 -999921.32663158071
 -18875.220948559498 3323.3603894912935 -999816.32378645672
 46355.4587493121 -3326.4252505782774 -998919.46939640376
 40106.482762954947 -3773.3359399054793 -999188.2865487712
 33185.066650547218 -4373.8784112133708 -999439.65327529516
 27594.847518543091 -4936.319348861618 -999607.00134688639
 23482.627572163485 -5394.3003482761123 -999709.69172358222
 20575.372677506755 -5745.9319514535518 -999771.79311340395
 18567.804486710211 -6008.2148282030203 -999809.55086012324
 17211.170788391297 -6199.0922992317683 -999832.65942594525
 16320.351411716367 -6332.6096385571427 -999846.76035128697
 15761.390724753972 -6418.610092810578 -999855.17951696296
 15437.402655981939 -6463.6283347249027 -999859.94424618653
 15277.418103742275 -6471.8965719099233 -999862.34805139352
 15228.630888994903 -6446.1905729941791 -999863.25836503447
 15251.3523433788 -6388.4651936005412 -999863.28253625194
 15315.795740165488 -6300.3051352813218 -999862.8568739054
 15399.939094380699 -6183.207786634337 -999862.29542740376
 15487.90490128732 -6038.7391473636726 -999861.81966873747
 15568.498063288165 -5868.5814413402068 -999861.58123008208
 15633.691596487462 -5674.51408240397 -999861.68422287004
 15676.972200790895 -5458.3384665663716 -999862.2100488646
 15691.502272835382 -5221.7749049836466 -999863.24556074315
 15668.073576011133 -4966.3218969153031 -999864.91443456139
 15592.765049842268 -4693.0838084822353 -999867.41153138236
 15444.140279169782 -4402.535077049899 -999871.03979259857
 15189.665796635541 -4094.2054689671827 -999876.24811001704
 14780.880035772467 -3766.2367771832501 -999883.66375589208
 14146.645151659606 -3414.7820114599754 -999894.1002400039
 13183.730086311032 -3033.2156836239242 -999908.49024479638
 11744.17677351404 -2611.2496199716666 -999927.62522461335
 9620.2023734808354 -2134.4041865747895 -999951.44683382567
 6531.8526720781038 -1585.4339429025454 -999977.41039479629
 2136.8181210507446 -952.27731392834687 -999997.26358437352
 -3872.7510820419739 -253.07794202510129 -999992.46884694672
 -11363.159355868012 409.78645832472426 -999935.35325265478
 -18261.736148082437 812.2829367211815 -999832.91063521651
 45768.091338448801 -5332.0555031572821 -998937.86143050308
 39518.859382662013 -5609.3937870586624 -999203.07968622434
 32652.083858982973 -5931.2319768352272 -999449.17925170308
 27149.419292119946 -6221.1892994200089 -999612.02765663119
 23126.202419317684 -6456.1962724029145 -999711.70658913103
 20297.030588601323 -6637.8615113394981 -999771.95867049694
 18355.789606449507 -6774.3102389809001 -999808.56853135128
 17056.536609774132 -6872.9157144028122 -999830.90449758654
 16217.124977955866 -6938.6320668743101 -999844.41801836842
 15705.70679889989 -6974.248849182738 -999852.33441090514
 15426.549942982318 -6981.0595423587165 -999856.63290519931
 15309.074374829923 -6959.4982132728228 -999858.58881464088
 15300.338427564127 -6909.6424179931819 -999859.06831195834
 15360.216096487411 -6831.5854832842697 -999858.68661589059
 15458.375837795998 -6725.6808899165735 -999857.8918191446
 15572.296741180649 -6592.6825055171385 -999857.00983269908
 15685.763888549094 -6433.7888893763138 -999856.271256904
 15787.47312565235 -6250.6246294873017 -999855.83229986124
 15869.547747821112 -6045.1705336445248 -999855.79628639412
 15925.875349958345 -5819.6746426004302 -999856.23860702699
 15950.246843489598 -5576.5453616899858 -999857.23569290666
 15934.273474244812 -5318.243776198894 -999858.89765105606
 15865.025599735496 -5047.1588251712737 -999861.403970827
 15722.226784676426 -4765.4660352734991 -999865.04185234802
 15474.714721536628 -4474.9416591467507 -999870.24563261925
 15075.688864719828 -4176.7249811904449 -999877.63179985445
 14456.092156672075 -3871.0032005700441 -999888.01209624426
 13515.315686190368 -3556.6325135586712 -999902.33853465214
 12108.54779551848 -3230.7586418737237 -999921.46955092496
 10031.067785919047 -2888.7285538853844 -999945.5149788995
 7003.6375425642427 -2525.1388443427068 -999972.28598346107
 2676.3336541776825 -2138.1030763594531 -999994.13285949151
 -3285.4381953053403 -1740.2991046338759 -999993.08860356186
 -10796.007726076539 -1377.8527183863034 -999940.77211556118
 -17787.257343807712 -1140.740216419096 -999841.14347627445
 45371.600940942299 -7096.0963103220602 -998944.97508381843
 39174.293897570788 -7247.974263940554 -999206.10564922797