# OOMMF OVF 2.0
#
# Segment count: 1
#
# Begin: Segment
# Begin: Header
#
# Title: Oxs_TimeDriver::Magnetization
# Desc: Oxs vector field output
# Desc:  MIF source file: /mnt/gpfs/work/plgrid/groups/plggspinsym/MF/switching-obrazki/p-ap/Anisotropy.mif
# Desc:  Iteration: 19400, State id: 135950
# Desc:  Stage: 0, Stage iteration: 19400
# Desc:  Stage simulation time: 2.85627e-09 s
# Desc:  Total simulation time: 2.85627e-09 s
# meshunit: m
# meshtype: rectangular
# xbase: 1.0000000000000001e-09
# ybase: 1.0000000000000001e-09
# zbase: 3.4999999999999998e-10
# xnodes: 35
# ynodes: 35
# znodes: 5
# xstepsize: 2.0000000000000001e-09
# ystepsize: 2.0000000000000001e-09
# zstepsize: 6.9999999999999996e-10
# xmin: 0
# ymin: 0
# zmin: 0
# xmax: 7.0000000000000005e-08
# ymax: 7.0000000000000005e-08
# zmax: 3.4999999999999999e-09
# valuedim: 3
# valuelabels: Magnetization_x Magnetization_y Magnetization_z
# valueunits: A/m A/m A/m
#
# End: Header
#
# Begin: Data Text
 -0 0 -0
 0 0 -0
 -0 -0 0
 -0 0 0
 0 0 0
 -0 0 -0
 0 0 0
 0 -0 0
 -0 0 0
 0 0 0
 0 0 0
 -0 -0 0
 0 0 0
 17648.623724292738 32290.085554178768 -999322.70886613126
 15070.333774131102 31491.003098622663 -999390.41508500499
 12691.971342503326 30565.877476615358 -999452.17044014949
 10783.566698547085 29772.621446524849 -999498.52711320168
 9077.5728833581579 29181.290417411823 -999532.91589628113
 7270.2880155974844 28832.012857244816 -999557.83121676848
 5073.0045581871655 28767.069881544918 -999573.26910796436
 2313.9532254504929 28991.983451902935 -999576.9657790215
 -421.48740793902408 29326.500589132615 -999569.79681839177
 0 0 0
 -0 0 -0
 -0 0 -0
 -0 0 0
 0 -0 0
 -0 0 0
 -0 -0 0
 0 0 0
 0 -0 0
 0 -0 -0
 0 -0 0
 -0 -0 0
 0 0 -0
 -0 -0 -0
 -0 -0 -0
 -0 -0 -0
 -0 0 -0
 0 0 -0
 0 0 -0
 -0 -0 0
 0 0 0
 0 0 -0
 0 0 0
 23552.872360931891 30887.932259958339 -999245.31414675841
 21291.485315579805 29174.535780671482 -999347.54670987162
 19310.972901329198 26909.826533213818 -999451.32325769449
 17083.124937521592 26181.847598953071 -999511.2193960977
 14525.572827168538 24863.020689998059 -999585.33299374254
 12361.581401539479 23770.26285608521 -999641.01852065173
 10606.204314819703 22943.806801566228 -999680.49403771234
 9030.4862598393338 22371.176259996046 -999708.94803970563
 7391.1549325926053 22081.269729813106 -999728.85741879116
 5473.1648444233415 22150.239574757336 -999739.67179129506
 3180.2162709459863 22677.834105206748 -999737.76664921804
 878.04397870293531 23578.266740178507 -999721.60843721917
 -495.78979700768485 23550.113597188614 -999722.53467751597
 -2460.7989472368067 24589.484661579358 -999694.60422301933
 -5017.6628079323318 25422.950334145789 -999664.19194460171
 -0 0 -0
 0 -0 0
 -0 0 -0
 0 -0 -0
 -0 0 0
 -0 0 0
 -0 0 -0
 -0 0 0
 -0 0 -0
 -0 0 0
 0 -0 -0
 -0 0 -0
 -0 0 0
 -0 0 0
 -0 -0 0
 0 0 -0
 0 -0 -0
 -0 -0 0
 28662.067828513882 28771.716677017394 -999174.99677846779
 25869.175340783215 26754.120332973456 -999307.26146285795
 22810.956387957838 25316.789550135585 -999419.19154854189
 19966.130091533345 22995.488339858784 -999536.17301485362
 17666.905086626473 20666.922045677391 -999630.31106395437
 15529.307442317133 18886.418941220618 -999701.02720260248
 13467.377919607768 17401.612287296393 -999757.8774992337
 11697.136615976877 16279.102425313191 -999799.06372191268
 10207.675018944808 15458.976599397947 -999828.39698280569
 8861.1409951955593 14905.432656554758 -999849.64282515214
 7501.643652021361 14637.921075788005 -999864.71915409504
 6000.835171248018 14723.557172830224 -999873.59543165565
 4316.2133319414597 15244.127467228789 -999874.48556318122
 2578.4568849008274 16173.166450619752 -999865.88112959091
 921.47996490115599 17192.009260551415 -999851.78186182131
 -1239.5171650013071 18600.901474393919 -999826.21993101249
 -4040.1138199269326 20173.484345244346 -999788.33160309203
 -6803.0808970045755 20735.973196102848 -999761.8403929607
 -9713.6209727379337 21713.187765719933 -999717.05149239535
 -0 0 -0
 -0 -0 -0
 0 0 -0
 -0 0 0
 -0 0 -0
 0 0 -0
 0 -0 -0
 -0 -0 -0
 -0 -0 0
 0 0 0
 0 0 0
 0 0 -0
 -0 0 0
 0 0 0
 -0 -0 -0
 30965.544937282742 24972.556161249609 -999208.43994909804
 27592.111015230839 23731.176456997895 -999337.53390618227
 23884.624457258091 21098.543414840053 -999492.05908816902
 20674.96701301961 18605.742148068348 -999613.11120759626
 18001.52858835824 16245.043325519404 -999705.97854360892
 15836.774484423235 14160.256376251371 -999774.31639009831
 13976.875173050776 12454.460265242842 -999824.75133390178
 12327.04786410857 11081.621068296206 -999862.61134490604
 10907.519973275943 10018.684025571376 -999890.31997436006
 9688.9035727440278 9219.265316957617 -999910.56114763266
 8590.4489688858612 8659.510659462836 -999925.60576357483
 7519.1753389267415 8353.3494040961814 -999936.83978337143
 6397.0041823677111 8344.3720284868541 -999944.72336871759
 5182.3855516634521 8679.6288670549256 -999948.9021558672
 3869.8610928719645 9360.2287299218824 -999948.70383097406
 2393.1150573184168 10329.476073950751 -999943.78588216659
 487.53405157520973 11674.615159700892 -999931.73050534865
 -1998.2016632924838 13380.855327806787 -999908.47576206154
 -5035.6057435991388 15189.026038339533 -999871.95988426497
 -8636.6597631941859 17148.540845908185 -999815.65083518811
 -11572.517520368834 17852.340946169294 -999773.65976554039
 -0 -0 -0
 0 -0 0
 -0 0 -0
 -0 -0 -0
 0 -0 -0
 0 -0 -0
 0 0 -0
 0 -0 -0
 -0 0 -0
 0 0 -0
 -0 0 0
 -0 0 0
 -0 0 -0
 32321.456270793427 22613.561185564598 -999221.67226048571
 29053.147178420593 20736.645740210617 -999362.75003747968
 24964.985657303496 17944.07028942457 -999527.2681786021
 21336.123939782476 15155.955286319413 -999657.47475552128
 18404.051197671077 12724.788995720495 -999749.65398570057
 16056.359503193007 10621.620402747372 -999814.67007617187
 14161.573120459612 8824.2699248103563 -999860.78136260936
 12581.300505688465 7320.6703886864098 -999894.05371901568
 11231.956682173075 6079.8892570399694 -999918.43572149007
 10081.039203494098 5074.8384524709627 -999936.30730324984
 9093.3865830318409 4279.270675980647 -999949.49780623068
 8217.693426300928 3682.9191791285489 -999959.45198846504
 7396.0722019017285 3297.7304479423065 -999967.21100737934
 6574.1406605743405 3152.4263414633565 -999973.42108814896
 5704.7238125032227 3278.872375097008 -999978.3523267745
 4735.8053086870013 3697.0616798316487 -999981.95177863759
 3572.4772557635943 4423.0151692942154 -999983.83704091399
 2051.3769593264587 5514.7439184254099 -999982.68957621732
 15.298821076503179 7017.7784756583778 -999975.37497241015
 -2661.3858886632397 8936.6679810725691 -999956.52555025998
 -6027.5203330862732 11289.570601743291 -999918.10394364933
 -9600.1245245835707 13609.431175247615 -999861.30087737623
 -12106.965280841006 14735.265468756023 -999818.13013330277
 0 -0 -0
 -0 0 -0
 0 0 0
 0 0 -0
 0 -0 0
 -0 0 0
 -0 0 0
 0 -0 0
 -0 -0 -0
 -0 -0 -0
 0 0 0
 33409.742575727039 21275.66833099717 -999215.25961030682
 30145.394500942726 18968.973924868042 -999365.51532390795
 25957.355216798016 15786.974248133443 -999538.3870338538
 22069.419192337755 12785.210521198036 -999674.68664983287
 18864.134405212269 10207.629262847322 -999769.94790700462
 16318.56769709101 8043.558065398106 -999834.489064047
 14293.874502809644 6207.1954155450194 -999878.57056583173
 12659.384179759336 4634.0294632363684 -999909.12875276955
 11310.933391176017 3283.9423296865111 -999930.63684867451
 10180.966126176036 2127.8054313549737 -999945.90872345911
 9230.603648918046 1145.6505984161201 -999956.74078481155
 8428.1999623841966 325.25430244205279 -999964.42919487529
 7738.5925729892124 -333.90676127148816 -999970.00089565886
 7122.4417793740577 -819.11147621662519 -999974.29960948939
 6537.5047034269364 -1107.5411011434587 -999978.01695085398
 5936.704216737643 -1172.0589893934657 -999981.69074276974
 5259.5124763450222 -984.86590110016016 -999985.68368135567
 4417.4309269796913 -511.82694844304842 -999990.11211970507
 3287.5681288992414 300.16737717146015 -999994.55088282528
 1730.8229501361152 1514.0794873680059 -999997.35590411501
 -391.38190227590866 3196.7764471848645 -999994.8137068277
 -3172.3421114124453 5404.9906151508612 -999980.36096814345
 -6508.94282969083 8023.9406025749195 -999946.62359570281
 -9915.9579751040183 10562.857047340411 -999895.04440637829
 -12292.371093182895 11795.697078657211 -999854.86904017034
 0 -0 0
 0 0 0
 0 -0 -0
 0 -0 0
 0 -0 -0
 -0 -0 0
 0 -0 -0
 0 -0 0
 0 0 -0
 34719.640331652066 20375.216679786536 -999189.36999974749
 31267.746131534761 17901.393314392644 -999350.72330451489
 26907.212987878032 14495.470331775032 -999532.83249180263
 22829.239441488848 11274.637555059206 -999675.80163497245
 19402.59933795048 8541.6199296716532 -999775.26468097209
 16646.750490090435 6272.5326787568283 -999841.75799569127
 14456.133622260822 4369.4561204805877 -999885.9575241101
 12702.938668034318 2737.14620935009 -999915.56812554167
 11280.363654946972 1308.80770501235 -999935.51813014608
 10110.293586380254 43.54003315579444 -999948.88872775016
 9141.5266616965982 -1082.4518154725235 -999957.62949655042
 8341.7956234057528 -2081.0529815357213 -999963.04114915442
 7686.3796365910857 -2954.8895049862981 -999966.09352322307
 7150.2308747744182 -3697.5508536622892 -999967.60063320131
 6704.4115036998392 -4294.1275675175939 -999968.30516513006
 6314.0997247414107 -4723.16506958215 -999968.91144494654
 5935.6581917681742 -4959.050506083232 -999970.08744257374
 5511.5840807071918 -4972.6276705784458 -999972.44732791081
 4964.4464546258059 -4728.1104208139004 -999976.49934548349
 4194.3199446478611 -4178.1655737146566 -999982.47515276005
 3083.5480577618796 -3263.8153219084529 -999989.91956965253
 1505.4300551941506 -1916.4820101613088 -999997.03038411739
 -654.33069050944346 -71.87631172193052 -999999.78334254806
 -3446.6163503885814 2271.5379709943877 -999991.48043919844
 -6778.3481718829098 4953.6671246702617 -999964.75696800358
 -10233.323965300813 7444.8575721386596 -999919.92338204361
 -12766.449314324584 8515.8439489953962 -999882.24215341546
 0 -0 0
 0 -0 0
 0 0 -0
 0 0 -0
 0 0 -0
 0 -0 0
 -0 0 -0
 36806.548127389142 19393.928356545741 -999134.20197581453
 32863.359447575727 17051.787749264953 -999314.38303487527
 28109.300889795693 13646.538962903231 -999511.70037064643
 23726.181084305987 10339.967622610986 -999665.02059475798
 20047.220299567962 7493.2782762435236 -999770.95363834989
 17068.919485859467 5122.6914058952825 -999841.19240024558
 14686.4061831242 3137.7084043824334 -999887.22577068338
 12776.765060545593 1436.7170355367437 -999917.34164317162
 11231.51404400203 -62.348804308849495 -999936.92261307465
 9968.1139933800896 -1415.0691921411956 -999949.31585685711
 8929.5679404438233 -2654.2475805416307 -999956.607951654
 8079.4294627779609 -3796.0792829100792 -999960.15550702508
 7394.6201239650227 -4844.8994552564945 -999960.92250772018
 6857.6711187633009 -5796.1942485453819 -999959.68742697837
 6450.5693813432472 -6638.2782753075826 -999957.16079049907
 6150.7425631966198 -7353.6675494997371 -999954.04491381138
 5928.2673938078606 -7920.6150634023434 -999951.0585537299
 5743.2789390294965 -8314.358643581616 -999948.94179021672
 5543.073211719513 -8507.205564967091 -999948.44956769887
 5259.3333734297257 -8466.9262802402882 -999950.32405206608
 4806.7347184585096 -8154.3218800047161 -999955.20016449923
 4083.8822362282676 -7521.9953027389129 -999963.37007539743
 2976.1983725720352 -6515.3050235322025 -999974.34619278996
 1362.9955371518724 -5080.1631496827049 -999986.16699709324
 -866.84217884406974 -3186.8378699129808 -999994.54630964238
 -3784.0466475905637 -874.71550579744826 -999992.45790343487
 -7338.1405529780441 1653.2436758878878 -999971.70883909159
 -11149.48127307341 3835.166980196384 -999930.48786481924
 -14170.453871163176 4446.6483124988763 -999889.70669562882
 0 0 0
 0 0 0
 -0 0 0
 0 -0 0
 -0 0 -0
 40166.641536618881 17520.672139377602 -999039.37207472126
 35455.773567314682 15930.043633407657 -999244.27535542147
 29957.636105016143 12876.060379212251 -999468.23216554022
 25014.780534239719 9680.2653269435559 -999640.2118852681
 20932.125597656141 6828.3211118022436 -999757.58069081826
 17652.414881780314 4405.2028118635972 -999834.47951999935
 15032.104965634262 2355.70434211668 -999884.23653808772
 12928.387551660413 590.03425559625077 -999916.25082048308
 11222.746225753122 -974.94794016433548 -999936.5477087365
 9825.5962511752332 -2402.3818437035629 -999948.84180131252
 8674.5402821734224 -3733.6188339916689 -999955.40522630082
 7729.4972246491743 -4991.3079603042543 -999957.66996283375
 6966.5309182874989 -6183.7046933451365 -999956.61368042871
 6371.2905999654513 -7308.4245667320019 -999952.99568851886
 5932.7447693080658 -8355.2867921645447 -999947.49448264681
 5638.0129014349332 -9308.403321212023 -999940.78146564902
 5468.5570053905494 -10147.892710257665 -999933.55537146563
 5397.4946353679306 -10851.347696940455 -999926.55495532358
 5387.5909395823064 -11394.849280661421 -999920.56248170987
 5389.6508463011232 -11753.154949561656 -999916.40401209879
 5341.2405758109389 -11898.930805285401 -999914.93967977213
 5165.8627499150643 -11801.414989363093 -999917.01679004251
 4772.5074338647992 -11425.391530065639 -999923.33886212425
 4055.2225674778865 -10731.481370216177 -999934.19307348854
 2892.9346192185085 -9679.9185804267017 -999948.96375043329
 1150.9575502951286 -8241.1825800932693 -999965.37850387557
 -1311.0667197164075 -6417.6348946874905 -999978.54730309825
 -4606.7837778359162 -4289.0115066426315 -999980.19076555723
 -8718.8514584674886 -2110.6212093462714 -999959.76264415565
 -13215.022361764548 -509.81596312358215 -999912.54781188816
 -16721.400671667488 -705.1281969926556 -999859.93896835519
 0 0 0
 -0 -0 -0
 0 -0 -0
 0 0 -0
 38087.453965227141 14281.838193149335 -999172.34496770939
 32662.166611574659 11965.416959870639 -999394.82271483366
 26992.357716427879 9088.2494834445351 -999594.32588737446
 22276.7965083124 6355.9756626539656 -999731.63694598712
 18534.647529021076 3956.0718762974811 -999820.39203863242
 15577.825302127174 1884.8949601599852 -999876.88168586325
 13218.377895719457 78.176187390607382 -999912.63037041866
 11308.097894517248 -1537.4816047138177 -999934.87941581628
 9739.6487872810412 -3024.6759475931763 -999947.99393614102
 8439.9272824866512 -4428.9263538581317 -999954.57508769794
 7362.6574526122558 -5778.3825098166626 -999956.19982617535
 6481.2708310170874 -7086.0918624250462 -999953.88915216096
 5782.201872709591 -8353.0276738694192 -999948.39520356397
 5258.6298636033298 -9571.0108844906699 -999940.36950340529
 4904.8847181726132 -10725.246986708338 -999930.45317310712
 4711.8082169894378 -11796.491109899001 -999919.31757558312
 4663.2803610760029 -12762.904375913795 -999907.67678229429
 4733.8606021625674 -13601.58710161108 -999896.28831800167
 4887.373016540053 -14289.622662223599 -999885.95363129722
 5076.1510311115935 -14804.459790978608 -999877.52283017477
 5240.6522766367361 -15123.578041876865 -999871.89827043668
 5309.0581054448194 -15223.652845997316 -999870.01870045974
 5196.3699943151023 -15079.660165581345 -999872.79270323808
 4802.3762285704906 -14664.56623639532 -999880.93675180012
 4008.1219063952472 -13950.607178952278 -999894.65220998239
 2671.3507535359554 -12913.611783277123 -999913.04747756047
 624.18740541670593 -11542.538515761293 -999933.18786541699
 -2314.641257802682 -9859.3023582447458 -999948.71698145429
 -6273.5643009583982 -7958.8077084182178 -999948.64856692613
 -11074.389528440028 -6085.5710432872165 -999920.15867350588
 -15340.151255872832 -4756.0876300999198 -999871.02137720829
 -0 0 -0
 -0 -0 -0
 0 0 -0
 42004.382976286193 12422.266226391554 -999040.19894726074
 36547.409484315031 11092.760280509438 -999270.3525719879
 30009.881383538857 8556.0293896479707 -999512.98209699604
 24367.223308891942 5987.0818288700175 -999685.14707351173
 19918.870012915475 3663.3527502443553 -999794.88819659199
 16459.36224247158 1615.6295871733753 -999863.2302148171
 13738.264554164876 -198.29415950606838 -999905.60592811252
 11555.493362034909 -1839.1295862322543 -999931.54174449621
 9768.822698146625 -3364.335411259277 -999946.62425068079
 8283.4652782509656 -4819.5139162782916 -999954.07718984503
 7040.3507569978137 -6235.8719308169957 -999955.77270321362
 6006.2280053961813 -7630.572701581109 -999952.84868107305
 5165.4909994513218 -9008.432124894478 -999946.08147308917
 4513.1636189206156 -10364.15515708698 -999936.10577977856
 4048.7439930371834 -11684.686959318517 -999923.53495791927
 3770.8610479550953 -12951.508397293615 -999909.01537949545
 3672.9244282938284 -14142.787117807169 -999893.23990048282
 3739.9238645817027 -15235.319618349275 -999876.94143110141
 3946.4563769015276 -16206.133358570469 -999860.8836851404
 4255.8509630518256 -17033.598929168304 -999845.86024051753
 4620.1179268837668 -17697.911332979671 -999832.70522862556
 4980.2527212346904 -18180.922985165445 -999822.30977421184
 5266.3162851629713 -18465.440362909023 -999815.6297162933
 5396.5727686677328 -18534.246428138886 -999813.66199492058
 5274.9600305725771 -18369.187009200381 -999817.35720345308
 4786.337115954937 -17950.773726471019 -999827.41545710457
 3789.7272677672345 -17258.859478576775 -999843.87268049759
 2112.1336454151874 -16275.312362858518 -999865.31747978681
 -447.19361283640416 -14991.020627550119 -999887.5283342707
 -4070.3652793308784 -13424.43545472267 -999901.60348867078
 -8736.5495003581927 -11681.52505610749 -999893.60167729401
 -13674.927657857223 -10204.835441763917 -999854.41824655596
 -16779.871886536883 -10619.796112534514 -999802.80847275048
 -0 -0 0
 0 0 -0
 40080.239809031751 9744.2708860254788 -999148.94963751547
 33987.565254550755 8019.6363875186044 -999390.07941858214
 27434.934610832421 5703.203680608487 -999607.32181726058
 22043.285948211389 3476.1804520585142 -999750.97385002347
 17860.289726133149 1476.4239229822153 -999839.40221582516
 14618.869579461398 -316.06684506066739 -999893.08866196708
 12058.495378756441 -1954.1001877191361 -999925.3843070775
 9984.8783286723065 -3491.023865761314 -999944.05591369455
 8266.8466607023838 -4971.2443897686653 -999953.47190532088
 6822.0425014545308 -6427.2461796470234 -999956.07415658759
 5603.4556839334427 -7879.094602245279 -999953.25948398584
 4588.6448607193333 -9335.1372969039803 -999945.89831149892
 3771.1030538655505 -10793.384651802544 -999934.63867870648
 3153.0536425895239 -12243.292039112295 -999920.07683252986
 2739.2322632930463 -13667.791287879092 -999902.83932386083
 2531.5948613705245 -15045.444148639937 -999883.60604513763
 2525.0792993805903 -16352.599705816796 -999863.09885773517
 2704.6426127162954 -17565.386739013065 -999842.05857577629
 3043.6590324662529 -18661.360804416738 -999821.22889675701
 3503.5978731318423 -19620.615991854505 -999801.35838577629
 4034.6263156200835 -20426.249103613103 -999783.2215725818
 4576.5962346767465 -21064.148278473083 -999767.6512191256
 5059.6857127773901 -21522.202240411159 -999755.56732193811
 5403.9191541972905 -21789.083884996642 -999747.98498482979
 5516.7965753611397 -21852.797969067291 -999745.97782460193
 5288.5206518075338 -21699.147358462647 -999750.55816600134
 4584.9969586099041 -21310.280717425139 -999762.39664163906
 3240.8066301360245 -20663.712499429952 -999781.23014893977
 1059.889072681706 -19733.55667044827 -999804.71261956356
 -2153.3216385561745 -18501.015535254115 -999826.52276786766
 -6470.8974410943565 -16999.207601908241 -999834.5635289941
 -11475.946317934844 -15453.701433337266 -999814.72572077927
 -15368.000707730098 -14471.700900206575 -999777.17238757841
 0 0 0
 -0 -0 0
 37685.08719063217 7420.0723049579792 -999262.116128908
 31468.373110345296 5497.7259883515771 -999489.62801158929
 25124.45265508681 3377.4123459994494 -999678.62584163866
 19998.870200362235 1427.5081520421502 -999798.98350177624
 16032.484355874347 -329.53281646439092 -999871.41715997737
 12944.088667232183 -1942.3944898924253 -999914.3351668783
 10481.759198451433 -3465.1860366410142 -999939.06074812228
 8463.7852573907494 -4943.1115080786994 -999951.96384013142
 6771.5148333827838 -6409.927934971236 -999956.52876049047
 5334.2084787519962 -7887.8920507840585 -999954.66266171308
 4115.3511343679038 -9388.3111596838553 -999947.46036909847
 3101.7006211694993 -10912.423112712757 -999935.64716688939
 2294.4877432132894 -12452.605615561941 -999919.83075613575
 1702.0221102717405 -13993.942778706718 -999900.6314060624
 1333.3275066503113 -15516.114486745302 -999878.72886115254
 1192.7527824235426 -16995.522444140515 -999854.85424518038
 1275.7770084421745 -18407.477667668925 -999829.75408763415
 1566.243643291202 -19728.233169069968 -999804.15267034993
 2035.1697300730314 -20936.612634810514 -999778.73368838453
 2640.9952648565413 -22015.041113520914 -999754.15133360703
 3330.8846784431807 -22949.856872828852 -999731.06847630581
 4042.4182899659113 -23730.910671201418 -999710.20937723969
 4704.8960738116275 -24350.53687701231 -999692.4103476709
 5239.4228421347689 -24802.03788884787 -999678.65205016825
 5557.0721971134908 -25077.785162007629 -999670.05738891882
 5554.6902917403695 -25166.979983416917 -999667.82909838448
 5108.6054932353281 -25053.034638918751 -999673.07036115357
 4068.1789901075699 -24710.647847596556 -999686.36771872418
 2255.3945985071723 -24103.368232825011 -999706.92747176543
 -512.53484481227281 -23185.012015501994 -999731.06009860185
 -4331.5277283072246 -21915.514735316567 -999750.44290133973
 -8915.4150252955878 -20322.844750838929 -999753.71835075493
 -12729.95780081124 -18745.287404812865 -999743.24822651362
 -0 0 -0
 43054.454451387974 6806.7323516427787 -999049.53948569845
 36828.24520434445 5418.4545241279338 -999306.92017304606
 29486.08937029391 3354.8457126142966 -999559.56077859201
 23161.092991066642 1432.5679268022543 -999730.71950430446
 18207.153025767893 -285.21333203976548 -999834.19537043804
 14383.515918025201 -1856.0383645580209 -999894.82926527096
 11385.293228062454 -3341.2354711053586 -999929.60314396035
 8968.3392192319916 -4790.0830921477791 -999948.31066191546
 6963.3365273421668 -6238.8167249501239 -999956.29360001511
 5263.3664436801473 -7711.8731469494578 -999956.41104312392
 3808.105096737198 -9223.062157178947 -999950.21549076005
 2570.2143579101021 -10776.480985971913 -999938.62884464744
 1544.4389215647263 -12367.408307200292 -999922.3279436162
 738.68252396007256 -13983.42966579265 -999901.95421496732
 166.40397924856535 -15605.932196858639 -999878.20617812395
 -159.99516277983903 -17211.996521153796 -999851.84981441312
 -234.71254185627751 -18776.572640498569 -999823.67707006144
 -62.745888916532785 -20274.731577806408 -999794.44453467592
 337.57587494740517 -21683.703082876542 -999764.82387766684
 933.85299571315522 -22984.424521376113 -999735.38706399885
 1680.5184678928283 -24162.381728451925 -999706.63455180079
 2520.8800403350474 -25207.657086848045 -999679.05809215305
 3389.5758446645432 -26114.212705592443 -999653.21920672094
 4214.578633253087 -26878.540311688546 -999629.82218302041
 4917.9442280447875 -27497.817472536182 -999609.76578803826
 5414.6462114906044 -27967.674125435715 -999594.16305339534
 5609.1947066751145 -28279.566757320939 -999584.31512242171
 5390.3804844169817 -28417.695439562292 -999581.60166348482
 4625.9935841298411 -28355.469462061799 -999587.19856496062
 3162.9257672324393 -28052.116236440401 -999601.45791972918
 846.91543082951239 -27452.090695582239 -999622.76157093106
 -2401.5992717758827 -26497.408626052566 -999645.99716951873
 -6366.7139500571111 -25194.454033349441 -999662.29519745312
 -10030.64567271452 -23908.287788614656 -999663.83345723024
 -11290.770321087648 -24237.927660483616 -999642.45676555869
 41838.814169199817 4063.5902368040552 -999116.10980070895
 35072.598111891966 2922.9523118732523 -999380.49271109176
 27630.374506975168 1311.7067144785808 -999617.34770365967
 21433.523281519156 -276.86831459326214 -999770.23731639306
 16608.372451282845 -1762.7783392559356 -999860.5175608478
 12867.5270034643 -3178.3570881341811 -999912.15853945643
 9906.3717177096714 -4568.2627153890389 -999940.49561719119
 7491.5755745456063 -5969.0019951002596 -999954.12260292901
 5465.5382933754427 -7406.2808217207712 -999957.63655044592
 3731.8538202700429 -8895.6405059069184 -999953.46934097586
 2239.3912993337535 -10443.344474917183 -999942.95921456767
 968.8911893231575 -12047.11457509605 -999926.96147282561
 -77.900798083629482 -13696.918531329777 -999906.18977692677
 -887.30543377713616 -15376.053304337689 -999881.38780249783
 -1441.6095831561622 -17062.68199831944 -999853.38257408235
 -1725.9713406567614 -18731.821071483657 -999823.05429624754
 -1734.1628767223258 -20357.633245315687 -999791.25793725869
 -1472.7415518855078 -21915.742009442627 -999758.73653821938
 -963.29759239578004 -23385.236312304158 -999726.06386968133
 -242.63613541149874 -24750.046587343972 -999693.64123296796
 638.85327262901944 -25999.494891378599 -999661.75186004234
 1620.0557884720829 -27127.9609495562 -999630.65636962233
 2632.3679617102998 -28133.762264247915 -999600.70131016453
 3602.422798539651 -29017.41777388742 -999572.41459321824
 4453.4923542523056 -29779.479753718821 -999546.57169711136
 5105.0107846773608 -30418.036014832873 -999524.22779534897
 5469.9958224418069 -30925.896657435092 -999506.71236447222
 5450.7671931428204 -31287.419166099251 -999495.56604265689
 4934.5741526661968 -31475.096291479356 -999492.3552941134
 3793.548043624005 -31446.754751248849 -999498.22941756912
 1899.7689489446666 -31146.505560269397 -999513.02446207521
 -819.8413214576741 -30519.038139119333 -999533.8494374617
 -4238.4027115548606 -29562.37917350528 -999553.95136033383
 -7718.7983688227851 -28456.13517078181 -999565.23975320568
 -9681.7115543393429 -27655.830014976011 -999570.61757914897
 40436.618006112854 1445.2907189019043 -999181.06019828329
 33465.767112563859 655.455831843184 -999439.6494082174
 26032.619941788002 -520.09685754970099 -999660.95862458542
 19924.699455448103 -1788.7348677771636 -999799.88336625788
 15167.478609191667 -3064.0226274070383 -999880.2725116536
 11453.488169704655 -4347.707878606936 -999924.9547065763
 8483.6081047437619 -5662.4957449837293 -999947.98091473908
 6035.1112394761449 -7029.8312330254566 -999957.0785314549
 3960.756084086076 -8464.3002502307772 -999956.33306285751
 2173.285666145639 -9972.6708062600792 -999947.9099765165
 629.62304459126017 -11553.971329660559 -999933.05241967808
 -682.37898389387431 -13199.836715942749 -999912.64551939489
 -1754.8379965403592 -14895.144369955209 -999887.52128317102
 -2569.1719172487396 -16619.11691070841 -999858.59215629485
 -3104.3528521935946 -18346.980790969814 -999826.86065599625
 -3344.1611840804321 -20052.128210112176 -999793.34301655588
 -3283.0994858280724 -21708.551144866058 -999758.9509801633
 -2930.4813012117329 -23293.203215789064 -999724.38149886648
 -2312.2715849464853 -24787.892438410116 -999690.05886253528
 -1470.6073677041074 -26180.386086991817 -999656.15323385363
 -461.33038232396359 -27464.548375881121 -999622.67169006693
 649.72680114823243 -28639.5295682346 -999589.59338380175
 1790.77322888808 -29708.165476003414 -999557.01089797413
 2887.4596001845216 -30674.829573416097 -999525.24600817333
 3864.8953179389796 -31542.942634309533 -999494.9251267612
 4647.7947465462048 -32312.258447111013 -999467.01594301814
 5158.641602508289 -32975.915908068368 -999442.83347615274
 5314.246237780987 -33517.208196170126 -999424.01188967761
 5022.019614090088 -33906.165423583945 -999412.4029975133
 4179.3022275514359 -34096.68458563304 -999409.80059891276
 2683.6844827085729 -34026.51924494595 -999417.32715901546
 472.61602307110871 -33625.606476790606 -999434.38765291788
 -2365.3981833208691 -32842.323428007076 -999457.74632211647
 -5311.7078723139766 -31699.24130244027 -999483.33846059127
 -6914.6855197708182 -30432.802668798318 -999512.8971883679
 39201.89209666659 -691.27798195513685 -999231.07126970019
 32145.183116771379 -1259.4783661636427 -999482.41651198361
 24705.952642072261 -2128.7286870637154 -999692.49492942786
 18618.742588303707 -3139.2877869349481 -999821.72775781446
 13863.589012231978 -4233.2401570668844 -999894.93476938491
 10123.125265646171 -5402.2411152492814 -999934.1668958955
 7103.4760416802756 -6653.1151155674925 -999952.63722207572
 4590.5684460220673 -7993.5207885243381 -999957.51425085356
 2445.6382473898034 -9427.0595492654793 -999952.57357627584
 589.11445492941778 -10951.649419292946 -999939.85535088845
 -1015.1423596525919 -12558.962353676265 -999920.6178245293
 -2373.0763744957053 -14234.401052670633 -999895.86974604148
 -3471.5422323863527 -15957.634144444677 -999866.64226137719
 -4287.9975917187112 -17703.786236677141 -999834.0807501711
 -4799.1971719632784 -19445.300090804547 -999799.40388604102
 -4988.7859487231435 -21154.314152997296 -999763.77560275409
 -4853.336957681694 -22805.241145193035 -999728.1460960696
 -4406.2230667913955 -24377.11170199871 -999693.12372515292
 -3678.9168978973571 -25855.256683669191 -999658.92747090477
 -2719.7006380859743 -27232.008030653611 -999625.44033605792
 -1590.2864313588357 -28506.311195602342 -999592.34751526872
 -361.21161234827571 -29682.343552181148 -999559.3169029149
 892.94156120354728 -30767.395851136749 -999526.17274782143
 2097.5591644910196 -31769.306042917207 -999493.02720884595
 3180.5366094957803 -32693.682024278263 -999460.3580645764
 4072.9972824800279 -33541.002099148543 -999429.04293967842
 4708.1727258001119 -34303.542651312935 -999400.37025766284
 5018.86617439157 -34961.980882029486 -999376.04077500675
 4934.6212463770007 -35481.599441609178 -999358.14681935729
 4381.3224549208344 -35808.401876322285 -999349.06932893558
 3289.8158817886547 -35866.448393714192 -999351.17700990627
 1629.9164091313853 -35559.820672606293 -999366.22042484058
 -489.34542510715789 -34787.799076650997 -999394.60153457779
 -2565.130261340581 -33503.160628770616 -999435.31973541214
 -3339.2106045928485 -31958.946704532067 -999483.60436681251
 38217.213790925103 -2569.4908549751704 -999266.15187686845