# OOMMF OVF 2.0
#
# Segment count: 1
#
# Begin: Segment
# Begin: Header
#
# Title: Oxs_TimeDriver::Magnetization
# Desc: Oxs vector field output
# Desc:  MIF source file: /mnt/gpfs/work/plgrid/groups/plggspinsym/MF/switching-obrazki/p-ap/Anisotropy.mif
# Desc:  Iteration: 50800, State id: 355750
# Desc:  Stage: 0, Stage iteration: 50800
# Desc:  Stage simulation time: 7.47782e-09 s
# Desc:  Total simulation time: 7.47782e-09 s
# meshunit: m
# meshtype: rectangular
# xbase: 1.0000000000000001e-09
# ybase: 1.0000000000000001e-09
# zbase: 3.4999999999999998e-10
# xnodes: 35
# ynodes: 35
# znodes: 5
# xstepsize: 2.0000000000000001e-09
# ystepsize: 2.0000000000000001e-09
# zstepsize: 6.9999999999999996e-10
# xmin: 0
# ymin: 0
# zmin: 0
# xmax: 7.0000000000000005e-08
# ymax: 7.0000000000000005e-08
# zmax: 3.4999999999999999e-09
# valuedim: 3
# valuelabels: Magnetization_x Magnetization_y Magnetization_z
# valueunits: A/m A/m A/m
#
# End: Header
#
# Begin: Data Text
 -0 0 -0
 0 0 -0
 -0 -0 0
 -0 0 0
 0 0 0
 -0 0 -0
 0 0 0
 0 -0 0
 -0 0 0
 0 0 0
 0 0 0
 -0 -0 0
 0 0 0
 23330.466957859233 34852.32477051951 -999120.11528625467
 20892.742075293278 34492.505722731672 -999186.54933778138
 18585.013865780293 34090.646121455204 -999245.92824120668
 16800.131002988532 33835.271041568303 -999286.21026802238
 15281.679066876657 33763.232855567505 -999313.02122610097
 13698.528946413906 33880.323469622199 -999332.01389042765
 11713.870308377815 34190.816276279256 -999346.67324445536
 9060.4298592643518 34661.525795355599 -999358.03756226599
 6149.3979535213939 35086.313478848024 -999365.36637571815
 0 0 0
 -0 0 -0
 -0 0 -0
 -0 0 0
 0 -0 0
 -0 0 0
 -0 -0 0
 0 0 0
 0 -0 0
 0 -0 -0
 0 -0 0
 -0 -0 0
 0 0 -0
 -0 -0 -0
 -0 -0 -0
 -0 -0 -0
 -0 0 -0
 0 0 -0
 0 0 -0
 -0 -0 0
 0 0 0
 0 0 -0
 0 0 0
 28156.178529353634 32825.368892594313 -999064.4247333043
 26127.483359430891 31664.663416299343 -999156.99652458762
 24566.649760814518 29942.685993100484 -999249.67614457989
 22864.013620029498 29397.901896453302 -999306.25948468363
 20555.173760326514 28359.842594244106 -999386.41383586568
 18517.517286886363 27672.438450168884 -999445.5151251374
 16905.663431668079 27321.697181224936 -999483.72843537212
 15510.162394619689 27235.693145313715 -999508.70525543042
 14061.961298940834 27394.957724060052 -999525.77632381453
 12294.540169782471 27837.82067560211 -999536.84275370569
 10018.339373536743 28654.000881479828 -999539.18437932222
 7473.3495271602251 29856.1729412778 -999526.2667804911
 5775.6629909413859 30495.083717635407 -999518.22974174388
 3808.3484143115893 32119.726980372514 -999476.77292724606
 1169.3767345509536 33214.845266647077 -999447.55070587131
 -0 0 -0
 0 -0 0
 -0 0 -0
 0 -0 -0
 -0 0 0
 -0 0 0
 -0 0 -0
 -0 0 0
 -0 0 -0
 -0 0 0
 0 -0 -0
 -0 0 -0
 -0 0 0
 -0 0 0
 -0 -0 0
 0 0 -0
 0 -0 -0
 -0 -0 0
 32963.987436577787 30380.355705392347 -998994.69944514474
 30478.8525361006 28913.510168741814 -999117.13451316825
 27728.099733023002 27806.800778027675 -999228.66968261427
 25141.484986235133 25885.161589046253 -999348.71998827124
 23189.474251780022 23968.845466255774 -999443.71663988207
 21466.180059725968 22474.481975786024 -999516.9337102616
 19704.631772909888 21277.73769727999 -999579.40423218987
 18143.892970672277 20529.717453301404 -999624.59445991856
 16840.455568100177 20156.220441474881 -999655.00340556144
 15673.483074489364 20073.481719441363 -999675.64602723659
 14468.882217636286 20256.554726535433 -999690.1137042332
 13058.383229157045 20744.769541507238 -999699.52143837221
 11343.146615625194 21628.588273942634 -999701.72411281383
 9421.2603096023176 22961.156510977671 -999691.96513018815
 7544.4244818520192 24528.488081082709 -999670.66323449439
 5263.042225119877 26450.555631762854 -999636.26809620485
 2237.7110547107554 28411.09954160334 -999593.81854434905
 -851.28838209487344 29522.156296372596 -999563.76364677376
 -3988.2651405758152 30854.607003602217 -999515.92632024712
 -0 0 -0
 -0 -0 -0
 0 0 -0
 -0 0 0
 -0 0 -0
 0 0 -0
 0 -0 -0
 -0 -0 -0
 -0 -0 0
 0 0 0
 0 0 0
 0 0 -0
 -0 0 0
 0 0 0
 -0 -0 -0
 35481.11282186913 26892.946998497948 -999008.43842014554
 32354.357241450416 25905.815677762748 -999140.67291926523
 28862.221592846916 23638.578253054842 -999303.85258083511
 25897.461158616268 21463.297614202784 -999434.16409539559
 23495.236087618563 19438.473413733402 -999534.95168129588
 21660.807808738951 17724.972455083982 -999608.24064057192
 20169.739496745846 16381.089885469832 -999662.36375228094
 18848.188807741495 15386.682643113767 -999703.95406635664
 17696.957071968154 14754.001844653591 -999734.53333370504
 16701.014653183513 14432.774332920406 -999756.35588607751
 15783.649109613623 14369.655604681155 -999772.16875575576
 14839.286792319446 14546.723525648809 -999784.07088839111
 13766.577345629246 14988.277102434073 -999792.89500260376
 12500.705342236237 15746.982016130802 -999797.86203178612
 11038.467551278043 16857.933420373512 -999796.96054494672
 9368.3527056791536 18286.09968841141 -999788.90398211917
 7264.6199954918502 20057.685263259293 -999772.43138536334
 4515.7425491209106 22141.116466510193 -999744.65691537794
 1147.9272309074372 24351.249903160086 -999702.80528326333
 -2887.7619080283766 26636.453718405024 -999641.01564735197
 -6496.0572145654833 27649.138841014585 -999596.58180788881
 -0 -0 -0
 0 -0 0
 -0 0 -0
 -0 -0 -0
 0 -0 -0
 0 -0 -0
 0 0 -0
 0 -0 -0
 -0 0 -0
 0 0 -0
 -0 0 0
 -0 0 0
 -0 0 -0
 36841.977522253976 24833.691948661217 -999012.49063084717
 33928.172374258786 23167.313742711056 -999155.72094308154
 30075.741590710026 20581.456021998467 -999335.70607468206
 26635.856888046172 18044.458216445171 -999482.33033681707
 23942.998950202684 15916.459083609718 -999586.61412181298
 21895.98993519392 14176.57092751776 -999659.73734140897
 20353.525452902464 12798.836403504589 -999710.92011058598
 19148.103558595281 11750.372705419326 -999747.60758473072
 18150.768481234783 10996.938073364428 -999774.78311695356
 17301.875109872781 10515.275677633967 -999795.01603834052
 16557.096236173831 10270.611170984481 -999810.17053758795
 15858.678003430965 10231.765030145931 -999821.89079673158
 15138.847445851379 10387.415180517719 -999831.44424641831
 14331.91327175082 10750.144866365768 -999839.50244392909
 13384.875132864163 11348.656611338049 -999846.01469966152
 12255.498018783781 12209.991182367166 -999850.3482439951
 10875.845856896956 13349.996927305338 -999851.73578833102
 9099.9687071627268 14806.526550369827 -999848.96726507728
 6757.5095631274562 16621.712643545743 -999839.01440846967
 3703.6057723223616 18821.354769648096 -999816.00302701606
 -177.00228523869436 21432.066671392797 -999770.29121112812
 -4503.3154312269189 24083.039457538987 -999699.81862587796
 -7867.4890007567537 25725.690102048255 -999638.0802498454
 0 -0 -0
 -0 0 -0
 0 0 0
 0 0 -0
 0 -0 0
 -0 0 0
 -0 0 0
 0 -0 0
 -0 -0 -0
 -0 -0 -0
 0 0 0
 37820.653114816516 23687.133752115256 -999003.76270191185
 34981.169833074331 21626.206229538384 -999153.95458419062
 31107.211226877396 18627.573968863151 -999342.46127026982
 27446.421656915198 15804.437568469117 -999498.33100979961
 24476.930224504078 13483.515012665377 -999609.46109452553
 22226.841670528069 11671.725434836426 -999684.81949798914
 20558.117331626596 10275.342033224399 -999735.85569283215
 19318.849409259812 9214.2043082471464 -999770.91400803847
 18373.476574104025 8429.1228289446444 -999795.6617463968
 17619.235231421455 7877.1637898873023 -999813.7390736771
 16989.658513502563 7527.6418757355386 -999827.32814790844
 16435.601542972436 7353.9722924733305 -999837.88190558262
 15910.328167911495 7336.405590639898 -999846.50752532959
 15366.0657133762 7467.4826917133732 -999854.04971262731
 14755.931990159277 7753.7043069578494 -999861.06161837419
 14034.955166828959 8212.4276407351626 -999867.77929169731
 13154.179047931877 8866.4809706045762 -999874.16862761928
 12043.500887229973 9744.133150537953 -999879.99577725527
 10594.17475664889 10890.424934095005 -999884.57439145446
 8667.5407007603189 12369.425196119917 -999885.92902316537
 6108.9394323151801 14264.829213794548 -999879.59050403337
 2778.1418975745923 16671.58992602057 -999857.15980680729
 -1287.7059149018592 19568.431856512045 -999807.69065263437
 -5607.8962198484332 22586.988746015482 -999729.1530406496
 -8898.7503938364407 24554.360160680342 -999658.88964112522
 0 -0 0
 0 0 0
 0 -0 -0
 0 -0 0
 0 -0 -0
 -0 -0 0
 0 -0 -0
 0 -0 0
 0 0 -0
 38969.695644328749 22822.031122231838 -998979.73839154735
 35988.58725135462 20665.674585926481 -999138.50465366419
 32003.314811061646 17485.152835268687 -999334.80739511468
 28214.042512138727 14448.553072132083 -999497.47729508788
 25067.872503814702 11953.055058608848 -999614.28873485909
 22634.435038117899 10024.020067670863 -999693.55373143626
 20823.987652831107 8570.88164894088 -999746.41861123708
 19497.841408922195 7486.3460540204305 -999781.87061136088
 18524.063305116681 6685.1455418310416 -999806.06514851295
 17793.433008372569 6106.4666752291459 -999823.03674526361
 17223.087550433163 5708.1061682674526 -999835.37783937284
 16753.780535548583 5460.7352480847949 -999844.73355032317
 16340.843303351727 5343.0843031743525 -999852.20322318864
 15945.949530647544 5341.2395537354168 -999858.58892825234
 15532.934700525893 5449.8436171690237 -999864.50439253892
 15066.094485578733 5672.5880193834973 -999870.40887412732
 14508.068216637583 6021.3495181749477 -999876.62204224023
 13814.687046819339 6515.3011692918808 -999883.34583213856
 12926.059808067199 7182.785252975119 -999890.65630890254
 11758.095181994968 8067.1374974115997 -999898.32907665614
 10201.046431179913 9231.7566118500581 -999905.35218167957
 8122.7453039531983 10764.019561528743 -999909.07431206293
 5384.2154938193116 12770.146750984561 -999903.96217610536
 1895.0170962376508 15330.283825673838 -999880.68853640184
 -2282.9049110912119 18394.144791541446 -999828.20713488315
 -6713.4389748804324 21530.447846466304 -999745.65242998744
 -10163.734347591908 23525.147022527839 -999671.57905068004
 0 -0 0
 0 -0 0
 0 0 -0
 0 0 -0
 0 0 -0
 0 -0 0
 -0 0 -0
 40884.87237430946 21664.941994223696 -998928.95518115989
 37453.18735521879 19749.864456208812 -999103.19867914356
 33120.134099010917 16656.565941270532 -999312.57148517226
 29074.196900888044 13590.84549670366 -999484.85731063155
 25725.28434416424 11010.656720872517 -999608.41092099017
 23115.807950923361 8992.7500059760659 -999692.3476100564
 21156.922757051849 7471.3786620274795 -999748.2498711067
 19720.64392603052 6345.374567532087 -999785.3931843274
 18679.016590796375 5520.2866848224867 -999810.29239257076
 17921.798650040473 4922.5999809110908 -999827.27365409234
 17360.988402785802 4499.5148355234023 -999839.1622895773
 16929.698142998212 4214.3506275363934 -999847.80070247443
 16578.305561322573 4041.9260081870757 -999854.40070985304
 16268.87879881134 3965.1314518046556 -999859.79082829377
 15970.008550753866 3973.4643842338864 -999864.57603401283
 15653.205611888283 4062.8203908136975 -999869.22677145328
 15290.366721275197 4235.5224804504269 -999874.12459511438
 14851.071438773597 4500.297697716157 -999879.58924950159
 14298.602907414619 4872.7424125012931 -999885.89665835234
 13584.527327726453 5377.2776733025476 -999893.2670550925
 12643.222020129486 6050.8725762439071 -999901.76311376516
 11388.213388309809 6947.2495988469218 -999911.01820053649
 9710.6350571610692 8140.3021442245081 -999919.7163011576
 7482.7616944122201 9722.3832002506078 -999924.73893905221
 4573.7278025331134 11787.191170793592 -999920.0683746133
 885.16427815534735 14385.250701262134 -999896.13512927562
 -3557.1978434542812 17416.54578874632 -999841.99265498482
 -8359.1420823941753 20394.636947652314 -999757.06225433596
 -12299.425800634626 22075.605210179558 -999680.64489594824
 0 0 0
 0 0 0
 -0 0 0
 0 -0 0
 -0 0 -0
 44076.413554081024 19386.6118392307 -998840.04177325848
 39963.359480800755 18353.555208468078 -999032.57049518556
 34924.595045767121 15741.13213592019 -999265.9753138643
 30341.454791536999 12882.602232775305 -999456.56968216738
 26615.997948835116 10361.445932153574 -999592.03132647218
 23741.690883174888 8331.7915698262532 -999683.40656592115
 21590.086849400559 6774.3572839584504 -999743.95533717773
 20012.796565903762 5611.9504668761838 -999783.97365909454
 18873.317286245281 4758.8924851574475 -999810.55747422832
 18056.19429862074 4140.4580893832044 -999828.40050393657
 17468.669987868467 3698.5963416239792 -999840.57026805845
 17038.809718599576 3391.0116425075221 -999849.0786130745
 16712.13743615666 3187.9586536027264 -999855.26021616638
 16447.693762062332 3068.9915261253996 -999860.01753291546
 16213.937436035205 3020.5002540828236 -999863.98315522657
 15985.088501894315 3034.3317679302527 -999867.62612673303
 15738.215498289124 3107.2342237776497 -999871.31855474692
 15450.817586495179 3240.7525156381244 -999875.37711408897
 15098.332496380035 3441.4296854517675 -999880.09126972267
 14651.05467208148 3721.5311992714119 -999885.7418738046
 14070.316927716009 4100.6227639689159 -999892.59976984607
 13304.276455508798 4608.0795760405681 -999900.87600252475
 12283.746777599647 5286.025197105273 -999910.57975336944
 10918.208206642157 6191.7968964527245 -999921.22408755263
 9092.7142328089431 7397.7174148474296 -999931.295802332
 6667.5315814218648 8983.9325871828569 -999937.41453046934
 3484.6345015798638 11017.681042648592 -999933.23178441927
 -602.13652346865831 13502.869406774864 -999908.65080235712
 -5622.9117289083888 16263.276146337646 -999851.93339447852
 -11191.63760002677 18688.691586269848 -999762.71187448408
 -15877.426905757515 19417.535624082771 -999685.38382089988
 0 0 0
 -0 -0 -0
 0 -0 -0
 0 0 -0
 42717.00735507979 16474.445771042367 -998951.37515254621
 37736.328459888588 14591.516938090843 -999181.19335174293
 32397.661494873213 12130.464509759131 -999401.44254470686
 28018.927142069599 9801.9488711996746 -999559.33366665826
 24683.542008636949 7849.5530908195624 -999664.49735407834
 22219.081374161713 6309.3539009086799 -999733.21665144316
 20429.133736296382 5137.4737775217054 -999778.10381002515
 19145.061945031244 4266.5720712798166 -999807.61297655734
 18232.437821655836 3630.1016844134547 -999827.18535396934
 17586.970186607792 3171.6630793832555 -999840.30676551838
 17128.985654868695 2847.3288363483452 -999849.23391926091
 16798.299011791954 2624.6513716994377 -999855.45373093162
 16549.742150872513 2480.4919290950606 -999859.96679261525
 16349.286746305757 2398.815121151446 -999863.46393340209
 16170.67919573369 2368.968968103989 -999866.43964100373
 15992.598539359682 2384.592694932905 -999869.26670922257
 15796.298512713729 2443.0850348114705 -999872.24598386069
 15563.525747871547 2545.4731727496765 -999875.64088371606
 15274.396649767448 2696.6365990515942 -999879.70324336411
 14904.926125181566 2905.9404270523396 -999884.69269583141
 14424.024725740315 3188.4042485510713 -999890.88484147075
 13789.900928648251 3566.3923280210779 -999898.55459348508
 12945.779684132849 4071.6005538024406 -999907.91018838331
 11814.685753821077 4746.7930630023593 -999918.93729249656
 10293.066831719563 5646.1862109406775 -999931.08430354774
 8243.4055288116597 6832.4616275441476 -999942.68022391945
 5487.7668632599143 8366.906342647897 -999949.93839347165
 1812.0761019717418 10284.999963108346 -999945.46609100606
 -2982.0236055440391 12540.690385843045 -999916.91585844383
 -8835.9426514898933 14884.22156295157 -999850.18181021733
 -14410.526501598604 16630.220832536525 -999757.85692386911
 -0 0 -0
 -0 -0 -0
 0 0 -0
 46469.98767205725 14436.132919416881 -998815.36747894099
 41708.464898210994 13545.702328998605 -999037.99622649432
 35603.707743308696 11426.992444738058 -999300.65537784831
 30270.014443893157 9288.5563440918286 -999498.59877170867
 26189.092997831543 7447.7845747863057 -999629.26223319315
 23207.742774550527 5963.1028262034461 -999712.87982099853
 21072.051931294303 4811.1078032783316 -999766.38364625443
 19558.755640666423 3940.6787142763451 -999800.94325273565
 18495.091483398166 3295.870456201465 -999823.51884167851
 17752.327654737313 2825.9056332333371 -999838.42150629079
 17235.482878778173 2488.8380017142358 -999848.36041038577
 16874.55328640862 2252.0400518375027 -999855.07838235679
 16617.856218792673 2091.1925565189572 -999859.7270459407
 16427.0607423328 1988.7440838362693 -999863.08891384571
 16273.41056520096 1932.413911430167 -999865.71192588226
 16134.771126507543 1913.995321717385 -999867.99417853344
 15993.268436692395 1928.5610374691043 -999870.23958963621
 15833.331008693645 1974.0338798530338 -999872.69630658987
 15639.930798783456 2051.0805197651889 -999875.58507711871
 15396.788339166045 2163.2858101163065 -999879.12224595551
 15084.311188357324 2317.6421734832029 -999883.53926381259
 14677.051227634114 2525.3739451202937 -999889.0971771311
 14140.461626076039 2803.0983457097796 -999896.08959364682
 13426.643093220146 3174.1928723449942 -999904.82034784521
 12468.60506982372 3670.1155363654607 -999915.52850206417
 11172.430287167761 4331.1532572864162 -999928.20637930813
 9406.8451722749469 5205.7286932457091 -999942.20415615861
 6990.9132716146996 6346.7233373663794 -999955.42212366033
 3685.8291737836548 7801.7858047022592 -999962.77270784404
 -784.36784874835189 9591.0253181176085 -999953.69742824859
 -6590.896115841495 11652.345507161615 -999910.38745108142
 -13232.919447338367 13651.523039023241 -999819.24654490186
 -18501.400491334269 14279.47231991871 -999726.86012236564
 -0 -0 0
 0 0 -0
 45327.148377975784 12018.092619793577 -998899.90242751699
 39801.271039636173 10726.487979993803 -999150.03942313103
 33591.162384638461 8858.4398743561396 -999396.39875909174
 28521.258028665769 7118.1341917362079 -999567.84162261395
 24767.921872650619 5687.6121300521845 -999677.04840831889
 22091.855183951335 4566.263245230426 -999745.51720650727
 20215.372383576891 3709.8630713952675 -999788.765507687
 18911.621631526803 3067.9675915433604 -999816.45222616906
 18011.991296142394 2594.3425674442888 -999834.40506725456
 17394.847823303837 2250.0140764841253 -999846.16652056016
 16972.97895517002 2003.7541367694855 -999853.94081072998
 16683.633168071035 1831.4818858026622 -999859.14110859414
 16481.313095157573 1715.1949347599843 -999862.70278723526
 16332.674574425964 1641.8021540026441 -999865.26503671135
 16212.87650512343 1602.0622106828769 -999867.27920864697
 16102.896448624038 1589.7552204519266 -999869.07613162207
 15987.472914905598 1601.1101700079371 -999870.91024592717
 15853.42908607463 1634.4943815071945 -999872.9905414636
 15688.164412268967 1690.3247621634221 -999875.50440020883
 15478.112274102799 1771.2027987096264 -999878.63807617966
 15206.954902797901 1882.2622455912058 -999882.59591385198
 14853.37145396963 2031.7572961647957 -999887.61834455177
 14388.038699645658 2231.8716844117043 -999893.9959271492
 13769.493543009092 2499.7217203975929 -999902.07142444199
 12938.294777222121 2858.4421446884562 -999912.2110649331
 11808.755050587803 3338.1942145567041 -999924.70204687992
 10257.550217536071 3976.7903683161908 -999939.48206974065
 8109.4569536572917 4819.3720194702937 -999955.50419068895
 5124.5767776449738 5915.5592660381944 -999969.37196667166
 1005.8480103384931 7308.5521798154159 -999972.78629711457
 -4506.7246780852283 8994.141012208418 -999949.39614968933
 -11244.231379888563 10772.43889449467 -999878.75356012047
 -17342.158665884152 11927.58095812078 -999778.46663413115
 0 0 0
 -0 -0 0
 43714.402756567288 10141.564734660333 -998992.59239314159
 37937.884460945403 8568.2647438381664 -999243.36463241407
 31891.987970071936 6889.0842590389593 -999467.57907467359
 27131.593420859823 5477.9280990105863 -999616.8610733751
 23678.492870606344 4372.6437347235496 -999710.0624491811
 21254.633181169498 3530.3155700305697 -999767.86177607742
 19579.971851611142 2897.728832169686 -999804.09474551841
 18433.868525923262 2428.0378359421752 -999827.13362032559
 17655.337454951386 2083.1480390933789 -999841.96228884056
 17130.043849235357 1832.974003545994 -999851.5898892323
 16777.272904943857 1654.2209612094214 -999857.88323485467
 16539.807253306288 1529.187572612431 -999862.03866403049
 16376.696249147893 1444.6852957537906 -999864.84921931289
 16258.229480948286 1391.0910574992233 -999866.85855658515
 16162.439391780523 1361.5757383297855 -999868.45217979327
 16072.61126201118 1351.51073187312 -999869.91383177543
 15975.432775259182 1358.0702627784101 -999871.46233543672
 15859.512398824292 1380.002286491276 -999873.27770080988
 15714.055140814049 1417.5708327976574 -999875.52173456328
 15527.501705269635 1472.644996307663 -999878.35660519626
 15285.936478644573 1548.9532763904431 -999881.96347854903
 14971.035930934257 1652.4945866823857 -999886.56223833503
 14557.264103857617 1792.1300593052904 -999892.43138032639
 14007.904105897645 1980.342702006446 -999899.92342501064
 13269.355422582456 2234.1805064833284 -999909.46222352237
 12262.966337180342 2576.3729641068589 -999921.48789740645
 10873.687832286592 3036.643622598519 -999936.2688233864
 8935.5814676592254 3653.1395017277773 -999953.40389220917
 6217.3711866024851 4473.3994876171882 -999970.66606603633
 2421.9586893339797 5551.9199131058331 -999981.65498242294
 -2750.46151686849 6932.8023202540107 -999972.1852198852
 -9294.5392967214648 8579.3548884481625 -999919.99990447203
 -15626.458267319573 10124.743034252282 -999826.63666283165
 -0 0 -0
 48561.790652357507 9540.8408300878273 -998774.61163412209
 43277.283119401145 8493.3267939937941 -999026.9967151907
 36497.695603824141 6785.7066123462264 -999310.69863250316
 30557.23273311161 5325.3325087519052 -999518.83241956285
 26065.110056501602 4206.5433223331684 -999651.39675339835
 22860.357976854099 3369.6460589731264 -999732.98911189649
 20635.747034249645 2748.2940791923802 -999783.28292885202
 19114.694971287016 2288.9379952771815 -999814.67742727639
 18085.325445181174 1950.9304187461762 -999834.54374913592
 17394.79320431839 1703.773786270986 -999847.24749546824
 16935.416550307571 1524.5779784856322 -999855.42321290402
 16631.797417798047 1396.1637273087024 -999860.70731952437
 16430.950561449848 1305.7005173465536 -999864.15027732961
 16295.275848483281 1243.6941425284965 -999866.44968710782
 16197.702889811657 1203.2266886535253 -999868.08463248261
 16118.349852187592 1179.3753040934305 -999869.39540718764
 16042.187123717178 1168.7961397914094 -999870.6327059872
 15957.331602966133 1169.4382664682471 -999871.98979782092
 15853.702585894775 1180.3906943746736 -999873.62541079498
 15721.826021431962 1201.8342988794536 -999875.68216297263
 15551.603504130224 1235.1114525377373 -999878.30365907529
 15330.855409481075 1282.8974020255826 -999881.65252027172
 15043.417201280687 1349.499523769462 -999885.93071907142
 14666.496580627216 1441.2822464241822 -999891.40239504853
 14166.891038591159 1567.2590545283147 -999898.41628905316
 13495.516363288345 1739.8783766336621 -999907.41764491505
 12579.553367471686 1976.0954642960926 -999918.92165504652
 11311.52049639954 2298.8422946076512 -999933.38019498263
 9535.1562237235557 2739.0700412069446 -999950.78793463553
 7030.3658177146945 3338.3973229110461 -999969.71407127311
 3507.1740309181173 4151.701844902811 -999985.23144199885
 -1357.5049214165451 5245.9053098910554 -999985.31872116379
 -7731.1037013760788 6675.2401486733206 -999947.83424162504
 -14973.900961535464 8308.9499197673795 -999853.36106912442
 -20668.035016782585 9086.612199109677 -999745.10041674529
 48118.506144242703 6870.4646301559224 -998818.00448440644
 42174.221034144946 6131.9441171510352 -999091.45444323926
 35270.726328850898 4989.3099796436873 -999365.33992837812
 29535.666871922702 3962.538463793845 -999555.87271115242
 25277.270799147256 3166.0364567766496 -999675.46523564367
 22267.123432083059 2573.4348392528609 -999748.74475899618
 20192.18176432337 2137.589607831309 -999793.83200051053
 18783.330158982018 1817.9808549431657 -999821.9248714993
 17837.344217016027 1583.9200582794592 -999839.64731777506
 17208.535467023619 1412.8571871625932 -999850.92395899142
 16794.699209776591 1288.2677652597761 -999858.1291586411
 16524.580923272984 1198.003893965237 -999862.74208612263
 16348.351839461855 1133.1187948972702 -999865.71470069408
 16230.840246939882 1087.0494177666458 -999867.6803199721
 16146.86036913765 1055.0293833108317 -999869.07433584542
 16078.014689067984 1033.6763362487268 -999870.2060552109
 16010.474794246031 1020.6952153192241 -999871.30315763154
 15933.38047592717 1014.6907781960616 -999872.54077168938
 15837.588706970395 1015.0566007173028 -999874.06229186966
 15714.567691750039 1021.9502071409489 -999875.99630155927
 15555.254132020826 1036.3323549520649 -999878.47265762172
 15348.692362052698 1060.0910942344315 -999881.63992026937
 15080.238356712183 1096.2405763045763 -999885.68579998356
 14729.047836059388 1149.2289567460402 -999890.86125569115
 14264.462016988073 1225.3664333756469 -999897.50654778106
 13640.769243539382 1333.4383631237288 -999906.07126698457
 12789.683044408321 1485.5638444017188 -999917.10511806305
 11609.859581348614 1698.4186211802862 -999931.16089793318
 9953.2268951771584 1994.8896673954996 -999948.47551740811
 7609.8007708260384 2406.0085039908276 -999968.15052045882
 4298.7929237264334 2971.9040985789466 -999986.34398947039
 -307.86112284817688 3736.3396002608993 -999992.9724692672
 -6450.6504845398576 4713.5449428576967 -999968.08529192477
 -13818.934937841967 5760.6194860868027 -999887.91986918251
 -20255.148256388744 6348.8727945089249 -999774.68500825251
 47628.458006807356 4343.1887556986858 -998855.67861394561
 41393.035011001266 3978.8591965457663 -999135.01856959844
 34453.364788269035 3371.6849377489693 -999400.61906897312
 28849.447225011983 2773.5791793294843 -999579.92009310971
 24746.512738418372 2284.8246318665192 -999691.14714680193
 21868.329583409759 1913.2242864991185 -999759.02883347904
 19894.842217417223 1638.0762346206266 -999800.73612665141
 18561.241340408837 1435.9130955425774 -999826.69421929575
 17670.306952961077 1287.4029089240919 -999843.03910460777
 17081.514890803326 1177.9896565582112 -999853.40634985315
 16696.621961998426 1097.005033796054 -999859.9998974927
 16447.325587648425 1036.6665460762367 -999864.19618040451
 16286.002260516703 991.29786424916961 -999866.88286937214
 16179.147838169671 956.76497281389834 -999868.6512617633
 16102.859234420252 930.08892221297947 -999869.90796756791
 16039.7459453957 909.16927066503285 -999870.94165259367
 15976.79711684517 892.60254960194641 -999871.96441073169
 15903.849769901342 879.55749608113979 -999873.13892368751
 15812.400331040231 869.71374745657715 -999874.59793404536
 15694.55540659729 863.23853819754106 -999876.4602438719
 15541.947847001054 860.81820482031856 -999878.84608543431
 15344.43855175347 863.7271734123467 -999881.89411595068
 15088.395801587139 873.95986908486304 -999885.78173023427
 14754.277956897751 894.41986302959583 -999890.74967972352
 14313.147973799822 929.20630616360575 -999897.12989423121
 13721.614232856014 984.01459763335265 -999905.37003164273
 12914.552521160918 1066.7132716124222 -999916.0347029015
 11794.907058752844 1188.1163806029549 -999929.7318046611
 10220.174361178744 1362.8996354595288 -999946.84385751782
 7986.629437378323 1610.186859027056 -999966.80997346574
 4817.1869554859359 1952.1257384975138 -999986.49186623341
 373.52322271918706 2405.4107670044418 -999997.037235333
 -5641.4966086938348 2953.8620726936888 -999979.72390187497
 -13071.462100997682 3488.9408121592478 -999908.47789712786
 -19830.044211668879 3778.6856410668333 -999796.22467850358
 47323.992734741645 2391.5989118845973 -998876.72911440209
 40979.38318479513 2255.6047814375374 -999157.44625202275
 34017.368270360887 2006.415643701933 -999419.22782795364
 28470.587029754501 1742.029033005683 -999593.11272588756
 24447.106574992657 1515.2191168878173 -999699.97653853067
 21640.943298505299 1338.0074936881138 -999764.91202137014
 19724.048552345561 1204.6899746935926 -999804.73625141894
 18432.325029953383 1105.3571633235699 -999829.49925451353
 17571.502546669577 1030.9217476296578 -999845.07774884941
 17003.985267278305 974.27431288909702 -999854.94711712725
 16633.882757398173 930.14539501347974 -999861.21475630673
 16394.67016648368 894.69959720023587 -999865.19806560071
 16240.05201420338 865.15746650446806 -999867.74736118689
 16137.527284511851 839.5193801710235 -999869.42918580724
 16063.964335579092 816.36468620537858 -999870.63293134281
 16002.582065905373 794.72121921979078 -999871.63465387269
 15940.866968807379 773.96998236048864 -999872.63675467647
 15869.082840521916 753.79207575967337 -999873.7940396812
 15779.115871257642 734.13203442082295 -999875.2324927731
 15663.458167500597 715.19326044136369 -999877.06473187753
 15514.155339879586 697.44475813624604 -999879.4050058733
 15321.544774640897 681.65965111292348 -999882.3858863794
 15072.577974863676 668.96968849509312 -999886.17845870217
 14748.460550103597 660.96160306273487 -999891.01708194276
 14321.24437045782 659.80836709435857 -999897.22802526085
 13748.87503872735 668.46963300501841 -999905.25630357547
 12968.046406818536 690.96202616973233 -999915.67261638073
 11884.116243957747 732.71329559435003 -999929.11294367607
 10357.514282288656 800.89560659114284 -999946.03877615312
 8187.1894439116459 904.38438507898445 -999966.07543350884
 5095.7115888431317 1052.2488940594978 -999986.46315621107
 734.21363774326142 1248.2893238050904 -999998.95135149918
 -5227.9533049560423 1477.8928622631579 -999985.2420595662
 -12691.511710516063 1688.9794720757454 -999918.03308013442
 -19565.741553611511 1797.1110858298987 -999806.95744188689
 47245.018845151746 772.15708062159013 -998883.03217532148
 40867.478667544565 788.2842630900775 -999164.2646708691
 33892.313868257654 798.15635113912117 -999425.17178981192
 28356.687357685183 802.31536964763279 -999597.54630158329
 24354.17815548932 803.21573258399496 -999703.0703418178
 21568.452670872975 802.24708785423525 -999767.05199210998
 19667.635521725504 799.7708808544553 -999806.2534709028