# OOMMF OVF 2.0
#
# Segment count: 1
#
# Begin: Segment
# Begin: Header
#
# Title: Oxs_TimeDriver::Magnetization
# Desc: Oxs vector field output
# Desc:  MIF source file: /mnt/gpfs/work/plgrid/groups/plggspinsym/MF/switching-obrazki/p-ap/Anisotropy.mif
# Desc:  Iteration: 46100, State id: 322850
# Desc:  Stage: 0, Stage iteration: 46100
# Desc:  Stage simulation time: 6.78651e-09 s
# Desc:  Total simulation time: 6.78651e-09 s
# meshunit: m
# meshtype: rectangular
# xbase: 1.0000000000000001e-09
# ybase: 1.0000000000000001e-09
# zbase: 3.4999999999999998e-10
# xnodes: 35
# ynodes: 35
# znodes: 5
# xstepsize: 2.0000000000000001e-09
# ystepsize: 2.0000000000000001e-09
# zstepsize: 6.9999999999999996e-10
# xmin: 0
# ymin: 0
# zmin: 0
# xmax: 7.0000000000000005e-08
# ymax: 7.0000000000000005e-08
# zmax: 3.4999999999999999e-09
# valuedim: 3
# valuelabels: Magnetization_x Magnetization_y Magnetization_z
# valueunits: A/m A/m A/m
#
# End: Header
#
# Begin: Data Text
 -0 0 -0
 0 0 -0
 -0 -0 0
 -0 0 0
 0 0 0
 -0 0 -0
 0 0 0
 0 -0 0
 -0 0 0
 0 0 0
 0 0 0
 -0 -0 0
 0 0 0
 24073.956611744667 33910.868698955841 -999134.87457757094
 21623.047168531051 33440.258082843895 -999206.7818877633
 19267.399705742046 32947.857710092721 -999271.33751593949
 17422.933002918475 32641.766312889406 -999315.24380325084
 15846.120545896683 32557.559257438563 -999344.2378874477
 14213.938330144991 32698.631705291296 -999364.17958707549
 12194.929297319739 33069.18463960808 -999378.663333726
 9521.1054675669766 33636.50015355122 -999388.7804093539
 6587.6060703758976 34176.985602258806 -999394.08498419914
 0 0 0
 -0 0 -0
 -0 0 -0
 -0 0 0
 0 -0 0
 -0 0 0
 -0 -0 0
 0 0 0
 0 -0 0
 0 -0 -0
 0 -0 0
 -0 -0 0
 0 0 -0
 -0 -0 -0
 -0 -0 -0
 -0 -0 -0
 -0 0 -0
 0 0 -0
 0 0 -0
 -0 -0 0
 0 0 0
 0 0 -0
 0 0 0
 28944.760464802599 31775.328737099713 -999075.83762459422
 26846.02838814025 30502.345335260416 -999174.10779544897
 25199.680739431747 28713.937832571824 -999269.97646520834
 23508.213852747282 28185.354075041734 -999326.24787759781
 21215.128728642117 27079.458822455559 -999408.13545963785
 19160.864692214847 26320.34711175039 -999469.90979827067
 17512.083665267004 25923.368990852276 -999510.53314403095
 16075.220422527527 25821.860330739975 -999537.30236416229
 14593.01707968343 25994.819365900566 -999555.55784490856
 12807.581438096417 26476.187993343025 -999567.39509001968
 10531.68996780831 27345.225109381005 -999570.56887952588
 7984.8634047016558 28587.755026916391 -999559.3940426599
 6239.2001595991596 29193.163509941565 -999554.31647592329
 4181.3854201326685 30932.380872539539 -999512.73320029501
 1475.4997813193088 32189.271503487758 -999480.70201503637
 -0 0 -0
 0 -0 0
 -0 0 -0
 0 -0 -0
 -0 0 0
 -0 0 0
 -0 0 -0
 -0 0 0
 -0 0 -0
 -0 0 0
 0 -0 -0
 -0 0 -0
 -0 0 0
 -0 0 0
 -0 -0 0
 0 0 -0
 0 -0 -0
 -0 -0 0
 33769.444953738974 29300.291883757323 -999000.05880032002
 31206.974229446965 27725.770994213872 -999128.32328095823
 28423.701883464892 26564.3572931038 -999242.92746701208
 25797.383163155748 24559.142652399096 -999365.47045318317
 23795.519440308657 22595.194089762896 -999461.47022214509
 22061.416316247945 21091.265198066776 -999534.11769807315
 20308.408385348965 19862.148278874884 -999596.45038115361
 18744.438159087316 19070.506820249819 -999642.41697104834
 17423.083749415186 18662.303100650897 -999674.02416769834
 16232.698505185033 18562.731010828189 -999695.91602479771
 15009.088516803868 18747.260467014712 -999711.59215389553
 13591.080646179742 19249.680152347075 -999722.32761947543
 11879.667167924439 20149.016460179333 -999726.40789551334
 9956.4552648970403 21485.215577672985 -999719.58793960779
 8048.3981858743782 23051.957584578209 -999701.87082857871
 5720.9163550157436 25038.104001658303 -999670.12782420439
 2660.7845578105234 27097.208479676006 -999629.26203575381
 -478.14779531266061 28277.911694380589 -999599.98553665995
 -3711.1885896706144 29783.764916755299 -999549.47572725755
 -0 0 -0
 -0 -0 -0
 0 0 -0
 -0 0 0
 -0 0 -0
 0 0 -0
 0 -0 -0
 -0 -0 -0
 -0 -0 0
 0 0 0
 0 0 0
 0 0 -0
 -0 0 0
 0 0 0
 -0 -0 -0
 36158.554825847677 25780.450262229271 -999013.47703481081
 33040.024267887202 24706.367907175769 -999148.61366125732
 29515.471561041217 22342.483739345651 -999314.59028620541
 26522.395683710143 20107.098516473096 -999445.98008919193
 24097.108765415218 18030.769019495016 -999547.00775787106
 22239.077218869381 16283.015809274795 -999620.07124737545
 20738.368039544868 14921.097766762219 -999673.58719358547
 19418.149122537725 13903.861099474321 -999714.76838705421
 18266.009397991365 13242.19528186891 -999745.46618866408
 17262.321817142292 12894.561561387129 -999767.84431567963
 16333.78740745942 12814.077026249381 -999784.48018505122
 15380.506323674854 12983.946369486592 -999797.40805920353
 14305.116864500857 13424.845279534009 -999807.55006186757
 13041.714662066834 14182.968703685707 -999814.36130784976
 11578.779694004685 15289.814738025954 -999816.05979603797
 9896.8918547373632 16719.637600409878 -999811.2348089146
 7778.0762106170168 18519.512771394289 -999798.24423589197
 5017.9534496548031 20650.849739549885 -999774.1557712981
 1628.9162507618914 22926.267298715571 -999735.83155731473
 -2442.6250924046417 25328.962250101209 -999676.18619930651
 -6086.1548904412757 26436.886560360355 -999631.95714605087
 -0 -0 -0
 0 -0 0
 -0 0 -0
 -0 -0 -0
 0 -0 -0
 0 -0 -0
 0 0 -0
 0 -0 -0
 -0 0 -0
 0 0 -0
 -0 0 0
 -0 0 0
 -0 0 -0
 37397.423118740269 23696.992794116781 -999019.46191082452
 34497.81512556965 21962.192049611778 -999163.43151255196
 30656.72590401554 19298.604325440214 -999343.64911572658
 27215.12224279033 16692.508881686797 -999490.21869578352
 24513.937927598112 14513.594428698478 -999594.1288463237
 22457.124796782093 12733.578532845935 -999666.7112210996
 20904.724419654627 11325.262602546003 -999717.325509527
 19694.164855537958 10253.535917566363 -999753.47204789938
 18696.537815267191 9476.9391695372633 -999780.28941247833
 17847.657258908774 8970.4270153942653 -999800.4763799276
 17100.59739567338 8702.4773683414569 -999815.90128201328
 16398.573933965406 8645.3787546844815 -999828.15733460966
 15676.393655324948 8788.8479480232691 -999838.49037417537
 14870.194595506518 9143.8824491133801 -999847.62175365933
 13926.309289785955 9736.5105719508138 -999855.61871274549
 12799.389997020329 10593.217087840443 -999861.97015759849
 11419.788541268377 11734.306066569539 -999865.93825912918
 9645.2748262621171 13203.993818362949 -999866.3026728977
 7308.9712054326674 15043.654940073226 -999860.12391032069
 4263.8971762794681 17280.630698619672 -999841.58694441582
 390.32468922229418 19949.648854288367 -999800.90976015187
 -3950.4083613235039 22673.816263195604 -999735.11108185118
 -7369.4342383381527 24396.683752411576 -999675.19388093823
 0 -0 -0
 -0 0 -0
 0 0 0
 0 0 -0
 0 -0 0
 -0 0 0
 -0 0 0
 0 -0 0
 -0 -0 -0
 -0 -0 -0
 0 0 0
 38299.128088775011 22504.955761850098 -999012.8646588074
 35457.221922860168 20394.614110840583 -999163.07234043791
 31596.356010522679 17341.808694351748 -999350.25489468139
 27955.257852823263 14467.81520133025 -999504.47016593302
 24998.6363995869 12099.044468260134 -999614.26625529723
 22753.213063584593 10245.538447093846 -999688.61163724982
 21084.286221706985 8813.0692918970817 -999738.85724431928
 19842.97774276519 7720.8777129313703 -999773.29644356994
 18896.659043879237 6908.5325069327273 -999797.57373959478
 18143.443883192118 6330.6707042281969 -999815.35197880003
 17515.699476798585 5955.8516221165783 -999828.84940538392
 16963.26405009623 5758.8262091436172 -999839.52892124641
 16439.637371073975 5721.6266811777032 -999848.48917784984
 15898.04352925368 5837.624872971528 -999856.57688879757
 15292.327513541853 6112.9326505143445 -999864.37919031247
 14577.277387030146 6564.0606393115268 -999872.1998795172
 13703.078738926621 7213.8770986346199 -999880.08561541059
 12599.766736955688 8092.2317830116435 -999887.87454541354
 11160.854919635432 9245.7572872070705 -999894.97012918745
 9250.3148934259061 10737.791254591619 -999899.56071264739
 6714.270714958222 12651.078096117713 -999897.42913549521
 3409.0319957230108 15080.858922796559 -999880.46595330734
 -644.37610102466988 18008.34677553919 -999837.62893074402
 -4996.2206821555383 21081.946163798017 -999765.26711265673
 -8370.6330935966162 23128.084501201785 -999697.46634115139
 0 -0 0
 0 0 0
 0 -0 -0
 0 -0 0
 0 -0 -0
 -0 -0 0
 0 -0 -0
 0 -0 0
 0 0 -0
 39421.768973773382 21581.371086285937 -998989.57379595016
 36414.878204400229 19389.404869632916 -999148.6414063524
 32426.964903197582 16174.184006367856 -999343.22818483913
 28654.372996363705 13107.441860783165 -999503.43765094248
 25529.812362914436 10579.970361074777 -999618.07352001849
 23113.314960173808 8616.1299744808366 -999695.72219541599
 21313.027466317464 7127.6710979183845 -999747.44369012525
 19992.04275064465 6008.9644123656017 -999782.08154244639
 19020.981949374996 5175.5413502941665 -999805.68913034955
 18292.848953968169 4566.6272749777336 -999822.24299746321
 17725.920329163404 4139.5699005696833 -999834.31412885722
 17261.021459637173 3865.0775189038222 -999843.54691818787
 16853.272798568883 3722.7035426685025 -999851.04324309761
 16464.416984750667 3699.6081347956856 -999857.60779873095
 16058.600077355975 3791.1475530976445 -999863.86501552619
 15600.323163481864 4001.1698756535416 -999870.30186760775
 15052.125161618424 4341.4322467924994 -999877.28521762392
 14369.690609474974 4831.1556670816099 -999885.07935997751
 13493.598690675897 5498.9582537862361 -999893.83649090375
 12341.201589299706 6387.9780205222296 -999903.4395781135
 10804.534652141829 7560.1562063903066 -999913.04925432662
 8752.2622622558229 9100.5940027022352 -999920.28536983405
 6043.0535736371958 11113.527470218434 -999919.9823039216
 2576.6676568217763 13680.323363728014 -999903.10007342696
 -1605.5885129093901 16762.289657909187 -999858.21381381468
 -6094.9058667003692 19950.656807686224 -999782.38803022436
 -9658.7772571926707 22031.50769456847 -999710.61847446649
 0 -0 0
 0 -0 0
 0 0 -0
 0 0 -0
 0 0 -0
 0 -0 0
 -0 0 -0
 41366.203199772157 20366.113506518221 -998936.46377208328
 37880.114095082645 18424.8283990899 -999112.41742589069
 33519.073773112723 15310.778218201645 -999320.79522230767
 29472.586090159079 12231.140774735513 -999490.75326613535
 26137.997114106569 9635.0857777243873 -999611.9098074605
 23546.584891227336 7595.146944479774 -999693.889189512
 21603.153555617529 6045.8046684096653 -999748.34433589538
 20177.861987784221 4888.1547370498583 -999784.45668497391
 19143.571131846493 4029.9387707883043 -999808.62332639634
 18391.76939880833 3399.149548633121 -999825.07900168572
 17836.115848977177 2943.8447698470245 -999836.59002328617
 17410.811758932305 2627.8205865434097 -999844.96707882662
 17066.698428667823 2426.425344321704 -999851.40909276775
 16765.957798799129 2323.3114229547268 -999856.7421801592
 16477.214382076279 2308.8212739182286 -999861.57579463581
 16171.994516915704 2379.5226310751054 -999866.3933073224
 15822.128047964325 2538.1218408057307 -999871.60085760779
 15397.030424420293 2793.4900402515414 -999877.5564375394
 14859.892237374954 3161.225608536136 -999884.58846776187
 14162.539717716189 3665.5173025060121 -999892.98749998712
 13240.084119088609 4342.5256250120956 -999902.91660926538
 12006.951577478701 5244.2568379282493 -999914.16175791516
 10354.571015416999 6442.1399700571346 -999925.63808099879
 8153.5226500053377 8026.1275286995933 -999934.54853069701
 5267.1130643697252 10089.651682227041 -999935.22612662206
 1584.7517641369843 12688.972935556367 -999918.23592116113
 -2887.9551251866542 15739.469949269367 -999871.95620284847
 -7781.5704932698482 18778.515655517356 -999793.3859105258
 -11870.211258699152 20561.992098645846 -999718.11155225593
 0 0 0
 0 0 0
 -0 0 0
 0 -0 0
 -0 0 -0
 44613.135264029392 18067.669839086 -998840.94202655694
 40434.575115527106 17002.341399851492 -999037.51957679249
 35340.899486891503 14371.444904363554 -999271.97618807387
 30732.207408416718 11505.916284460645 -999461.42762903124
 27003.408100171648 8978.8839631699175 -999595.01579077076
 24137.492989230057 6938.0706702246907 -999684.57255654898
 21998.167856603668 5362.0847746126019 -999743.63146649883
 20432.582227033705 4174.4542869277593 -999782.51810828445
 19302.645172328816 3291.4725012349672 -999808.2686686106
 18493.151151583061 2640.4695761196299 -999825.50041539862
 17912.408847828508 2165.0497750918021 -999837.21583502751
 17489.660920160171 1824.1155266683472 -999845.38022808474
 17171.33614453112 1588.8153197765157 -999851.29938450898
 16916.991423685711 1439.4976619820161 -999855.86123583454
 16695.288333456672 1363.3642943224515 -999859.6944498081
 16480.449049986426 1353.0531105865557 -999863.27267601492
 16249.41031038413 1405.9859842749172 -999866.98108697287
 15979.424790946945 1524.1822635990143 -999871.15912590339
 15645.614756407613 1714.4392052025328 -999876.13004667033
 15217.995376219913 1989.0241752639586 -999882.22126386454
 14657.792050498098 2367.1546351662346 -999889.76677988726
 13913.268223570512 2877.3177457340416 -999899.06591111945
 12915.395767245886 3560.0765673115848 -999910.25517643848
 11573.433698154649 4470.6521662954256 -999923.03148874559
 9771.0832504853406 5679.2695915164404 -999936.13387506828
 7365.0296661273214 7265.2794170327734 -999946.48459455522
 4190.0665641530886 9298.6165719550409 -999947.98818340327
 87.485070673343174 11792.141646858216 -999930.46645341418
 -4992.8172568458358 14587.51475225817 -999881.13102968025
 -10688.953792002298 17098.759643205263 -999796.66867093334
 -15557.540486471815 17959.606441106884 -999717.66787953314
 0 0 0
 -0 -0 -0
 0 -0 -0
 0 0 -0
 43198.149357071896 15162.895088984578 -998951.45352746989
 38181.613699991416 13240.425415392629 -999183.09408740699
 32804.902908439653 10759.665994844494 -999403.85627275181
 28404.841851288573 8422.5827194868543 -999561.01617646974
 25063.134512655961 6462.3731914869722 -999664.98239216837
 22601.413590919015 4909.6979850117441 -999732.49970649043
 20818.221917496452 3718.9604215176641 -999776.36047747068
 19541.84616622845 2823.2522222824878 -999805.05374563136
 18636.593953213403 2157.4470273922161 -999823.99590535299
 17998.169087008209 1666.7927994626441 -999836.63051084441
 17547.544858767302 1308.8535539362349 -999845.17330024845
 17225.362539450376 1052.4186522637224 -999851.07856138505
 16987.160770705039 875.3725673882991 -999855.32458042086
 16799.368540369353 762.58776824100062 -999858.58983985358
 16635.922168352765 704.25953268339242 -999861.36544628977
 16475.462301428219 694.81578606791561 -999864.02894242457
 16299.013197165888 732.33384622130598 -999866.89406937384
 16087.939502765332 818.36233989714879 -999870.24582474481
 15821.869850651905 958.09304569618314 -999874.36735429184
 15476.30127811835 1160.9452831362823 -999879.56089961075
 15019.670897491065 1441.645673315174 -999886.15909206576
 14409.790646143601 1821.8241251032111 -999894.51388153515
 13589.495903719479 2331.9482459244546 -999904.9392909616
 12481.231618354337 3013.1798466515265 -999917.56640460144
 10980.327157148387 3918.1516022230508 -999932.03794235131
 8947.1096781282249 5108.7961593776536 -999946.92330653709
 6199.7739808209835 6647.8048079474574 -999958.68389340071
 2517.6635009032229 8576.0486204085973 -999960.05558249995
 -2308.3019255991012 10858.997678052901 -999938.37505700742
 -8234.7885596683409 13264.63047695453 -999878.11148943915
 -13927.656314384116 15112.132316749876 -999788.7996204145
 -0 0 -0
 -0 -0 -0
 0 0 -0
 46934.107866043123 13149.762105027072 -998811.43028872053
 42150.510194611445 12234.964908743583 -999036.35575689422
 36020.518868574021 10090.562600282903 -999300.10645793926
 30662.917968062753 7933.0547061335055 -999498.30020101252
 26565.91116515646 6079.0345239002263 -999628.57987515663
 23577.254249253878 4581.6569501887925 -999711.51914022502
 21440.612471652657 3413.7653481098992 -999764.29539316345
 19929.982297714578 2522.7067523180294 -999798.19551560236
 18870.725774628507 1852.5636993593496 -999820.21569704136
 18133.275870038233 1353.4308091889475 -999834.66259740444
 17622.626245694286 984.55331639171879 -999844.22471651644
 17269.222498763978 714.52214531222796 -999850.62054908578
 17021.996110014574 520.13609212137101 -999854.98003804334
 16843.178016863454 384.84970978557374 -999858.06955037022
 16704.393028349172 297.29675911523094 -999860.42769388133
 16583.660055862605 250.12142937592995 -999862.45036926051
 16463.023158397205 239.17363865153675 -999864.44664487231
 16326.612307597188 263.05793472340918 -999866.67737807939
 16158.908589104965 322.98105237734848 -999869.38414797385
 15942.992529154595 422.8876662528794 -999872.81298935099
 15658.534308056307 569.89182735415977 -999877.23522771941
 15279.311645335916 775.04790580637962 -999882.96411949571
 14770.006125636501 1054.4528469779702 -999890.36151382211
 14081.95639614671 1430.6127936099392 -999899.82090762048
 13147.375222203706 1933.8565382615686 -999911.69946333568
 11871.425368269205 2603.3586258517885 -999926.14316437917
 10121.648031064842 3486.9436641905254 -999942.69509058259
 7715.4199904479874 4638.1817944629474 -999959.47896102886
 4411.2026749170891 6107.681487392776 -999971.6183561458
 -72.275328794996128 7921.6997441343556 -999968.62023237534
 -5918.8058811142055 10027.14349357446 -999932.20976739272
 -12659.13758835205 12098.151437154227 -999846.67872995569
 -18101.960885268865 12823.976298798401 -999753.90203989495
 -0 -0 0
 0 0 -0
 45754.846540633051 10757.653871890183 -998894.77268690092
 40216.238289486588 9433.3267439169558 -999146.469004613
 33984.425075590407 7540.5870130974572 -999393.91553069768
 28896.878582234604 5780.5567058922379 -999565.68347076292
 25131.246046006752 4333.1665730695931 -999674.76918226993
 22448.142239889909 3195.0628159129087 -999742.90319240559
 20568.836555629565 2319.7180512337209 -999785.74798349198
 19265.190734590327 1655.5081029843868 -999813.03838211705
 18367.656499037119 1156.0297382684439 -999830.63205223787
 17754.210249270043 782.7950686138106 -999842.07515502418
 17337.736282271282 505.40112962488098 -999849.56241941941
 17055.88716827278 300.71102535901497 -999854.49255668314
 16863.688401207208 151.67618652714026 -999857.78639156558
 16728.276125393419 46.118458204252804 -999860.07153549267
 16625.14257077971 -24.335433345872943 -999861.79247048358
 16535.387921719255 -65.091714491572731 -999863.27900835872
 16443.64056980078 -79.167319846655317 -999864.79106794589
 16336.375475302482 -67.530885010215641 -999866.55023353489
 16200.423462441035 -29.217421273515946 -999868.76410155941
 16021.455738844055 38.761738342407362 -999871.64748958452
 15782.245829941789 141.73190989770623 -999875.44255703618
 15460.469818867359 287.89591503921594 -999880.43834696675
 15025.7685606302 489.12155403449248 -999886.98713367991
 14435.666832769952 761.94532832096286 -999895.5100221273
 13629.796281501891 1128.7362776779726 -999906.47293021379
 12521.689191634665 1618.8662772178329 -999920.29010904895
 10987.448602273702 2269.6251184531816 -999937.06040682108
 8851.4663692897193 3126.2970944278941 -999955.93793406256
 5873.2633315217054 4239.8060821161889 -999973.76406695019
 1753.3430836878972 5656.3602275040848 -999982.46553477494
 -3777.7032975478282 7377.3270031604106 -999965.65141212929
 -10576.548412976575 9213.2065332916827 -999901.62188539468
 -16800.378474117424 10454.566832728869 -999804.20548998821
 0 0 0
 -0 -0 0
 44079.703261569186 8909.0001819165591 -998988.29296250036
 38310.541674090215 7296.8647679157866 -999239.23970248317
 32257.651649982337 5588.582603736676 -999463.96215897123
 27487.275998678157 4155.8795229155794 -999613.5144762519
 24025.56382337508 3031.7416114110179 -999706.74741434597
 21595.630383885713 2170.470143698918 -999764.43115749897
 19917.44987176947 1517.2319691200375 -999800.4766941038
 18770.036548405646 1024.3720502522933 -999823.30258394871
 17992.132042839083 653.62641189749331 -999837.91484273446
 17469.393068670219 375.20466925909579 -999847.3281092809
 17121.366676353733 166.39105995501535 -999853.40481350035
 16891.282892826464 10.215544226624468 -999857.3320518668
 16738.700066348025 -105.72124356481089 -999859.89255650598
 16634.367513816876 -190.23848373385732 -999861.62123902654
 16556.634817330632 -249.37885394743932 -999862.89842843567
 16488.904195375075 -287.01225172827844 -999864.00758423272
 16417.741267847232 -305.25867186096178 -999865.1732052702
 16331.382657956847 -304.73349383992405 -999866.58763955941
 16218.412351398645 -284.64062017767804 -999868.43238523987
 16066.42515541901 -242.70762355980128 -999870.89720410155
 15860.470348110313 -174.97053996592365 -999874.1995199431
 15581.059168084834 -75.384017856913502 -999878.60508786282
 15201.432141953135 64.746841272365685 -999884.44945837627
 14683.687471878153 257.53907270688563 -999892.15568272863
 13973.195234006114 519.51101837818658 -999902.23518264736
 12990.577218654882 872.79293408419335 -999915.23797570972
 11620.51525739245 1346.569067885858 -999931.57284731173
 9697.3476559690334 1978.6875110389406 -999951.02192266064
 6990.3883664739087 2816.855335670256 -999971.59949495737
 3202.2648778018088 3916.661000650653 -999987.20255124196
 -1971.2741284975648 5325.484760291155 -999983.87651520572
 -8539.752544257457 7014.4638638842935 -999938.9330970092
 -14945.271765380849 8622.4101016273835 -999851.13536760956
 -0 0 -0
 48895.390265380338 8233.9803757102072 -998769.96469555923
 43611.373503816736 7210.3940747514434 -999022.55145637074
 36839.452118243556 5501.7322206510844 -999306.05207323737
 30899.174015054326 4028.6373498779917 -999514.38765346969
 26401.889122131455 2893.8768379191179 -999647.22063717537
 23190.934282624276 2039.5409255429286 -999728.97369232622
 20961.038564440787 1399.2150480711095 -999779.31417865877
 19436.23799391606 918.9809081346076 -999810.67614160548
 18404.805317401439 557.94003513825021 -999830.46155042993
 17714.009806611139 285.59456031195776 -999843.05383010884
 17256.418586387648 79.30339131128531 -999851.09377774026
 16957.044776559243 -77.662968083267486 -999856.21596353
 16763.420746527016 -197.55606310860463 -999859.46447312122
 16638.489138857309 -289.21182874376353 -999861.52893072856
 16555.655251459782 -358.85760246816824 -999862.88134944567
 16495.372218688095 -410.71495387332737 -999863.85773693887
 16442.74142678397 -447.44527422847199 -999864.70887170453
 16385.769861619996 -470.44990782799056 -999865.63358429621
 16314.000214854665 -480.05364473364926 -999866.8026019705
 16217.314412365638 -475.57014254640956 -999868.37761091825
 16084.71388642306 -455.26577643679946 -999870.52897475893
 15902.90095300927 -416.20547174778824 -999873.45425022871
 15654.430355895682 -353.98160917020806 -999877.39923815313
 15315.153538763061 -262.29428599172832 -999882.68175511062
 14850.548479259942 -132.36573980795845 -999889.71576328168
 14210.398805046321 47.869048636511494 -999899.02603930747
 13321.117710346291 294.85935557155813 -999911.2265000866
 12075.006960508952 630.9507277055078 -999926.89538189897
 10316.243101136144 1086.4461004662833 -999946.19593413558
 7825.6244754360059 1702.2609634391304 -999967.93044036254
 4313.4727054306022 2532.5265871777656 -999987.49005290295
 -546.77860671704957 3643.5215211275117 -999993.21286900749
 -6938.3882821251254 5089.4295555372164 -999962.97755209194
 -14268.321186053749 6743.1044156091857 -999875.46502220538
 -20161.709313594391 7554.8559477322324 -999768.18794616743
 48458.286704605205 5555.7882831393681 -998809.75549210922
 42517.589783471885 4826.8571587374909 -999084.05853009853
 35607.469031215929 3694.4739490178767 -999359.024080651
 29865.290855173869 2666.0241691875513 -999550.37727833679
 25599.697652094586 1859.3743889602506 -999670.5448331479
 22583.008228304225 1251.9234371585337 -999744.18749351474
 20502.688736191099 798.28960516606787 -999789.47908461874
 19089.822853197682 458.60490297328306 -999817.6675499269
 18141.315098881929 202.43683594392934 -999835.41230835114
 17511.696636790813 7.4345544457143973 -999846.65845599957
 17099.134229297342 -142.64615456267421 -999853.78894150478
 16832.879056814574 -259.56680946397762 -999858.2833620623
 16663.689571129715 -351.78902166376457 -999861.08919907536
 16556.983940265694 -425.32508291091528 -999862.83328333392
 16488.094251887826 -484.34585488907783 -999863.94482301117
 16438.993466162356 -531.62533622684941 -999864.72928507742
 16396.020803686064 -568.85240470334713 -999865.41439773107
 16348.232688104734 -596.84759806421994 -999866.18057664135
 16286.12734214643 -615.688050281188 -999867.18267198885
 16200.524862779834 -624.76226419304987 -999868.56769591663
 16081.437355058497 -622.74427128065918 -999870.49139484472
 15916.737044307883 -607.49699665460162 -999873.13616741472
 15690.422012493085 -575.88166269751719 -999876.73191117938
 15380.190794420379 -523.46824646836058 -999881.58084451279
 14953.95428014881 -444.10484021900925 -999888.08474862727
 14364.753843589007 -329.31159753032352 -999896.76737195463
 13543.426793919638 -167.41664141285281 -999908.26957393752
 12388.300053275816 57.647391784314721 -999923.26040480146
 10751.596953473279 367.96278618838005 -999942.13220882847
 8423.9942341918504 793.47638111509696 -999964.20271746488
 5124.6088660860823 1372.8676738634229 -999985.92671013135
 521.39324120199058 2148.1858923089521 -999997.55672024528
 -5640.9918552958407 3133.0392844260778 -999979.18142115872
 -13085.614849833317 4191.0824560486371 -999905.59629989509
 -19672.953300493726 4811.6042456463611 -999794.8906515874
 47959.812257772923 3067.6217966828349 -998844.55552639009
 41739.471401659481 2693.8739753409595 -999124.89688232401
 34789.078362859545 2085.0838941759034 -999392.50169881538
 29171.543199724118 1482.743486335587 -999573.32024174219
 25057.744161419479 984.60994660775077 -999685.5205517353
 22171.455521001848 599.46480417517046 -999754.00334383699
 20191.950863476181 307.7625463170512 -999796.07440844737
 18853.982644880656 86.752664198584782 -999822.24410762219
 17960.210142985456 -82.481824883147809 -999838.69901518046
 17370.273674625747 -214.19046478100995 -999849.10247242474
 16986.320642752449 -318.73568468680509 -999855.67124389764
 16740.601245867445 -403.54052837926014 -999859.78488234477
 16586.127301236655 -473.86389191071709 -999862.32844035036
 16490.036167346938 -533.36634336942245 -999863.8878505131
 16428.990278489429 -584.52099294719756 -999864.86417597346
 16386.0210105531 -628.90200044096355 -999865.54235942941
 16348.330658846 -667.39378740204518 -999866.13437509816
 16305.7163443811 -700.3278470306052 -999866.80770760833
 16249.344663530448 -727.57184139449953 -999867.70596775517
 16170.690631617304 -748.56364313127881 -999868.96562348062
 16060.455276681252 -762.30556200337685 -999870.73197815707
 15907.300138115519 -767.30244923385374 -999873.17648253124
 15696.181313875051 -761.45013746445852 -999876.51741895126
 15406.025465835946 -741.84764330736175 -999881.0449455576
 15006.367576657816 -704.52531277919843 -999887.14992054878
 14452.454260759803 -644.04450801846122 -999895.35041048808
 13678.146455903956 -552.94032409999886 -999906.29689312819
 12585.891722008148 -420.96523350070981 -999920.70591514127
 11033.272023091498 -234.20750903131528 -999939.10417350265
 8816.9878682757335 25.49775224668279 -999961.12928193121
 5659.7444709070714 379.27913837649294 -999983.9115905111
 1219.94899009148 843.37538130712551 -999998.90022060904
 -4810.3122657494505 1403.5467985003763 -999987.44539733615
 -12296.645389694835 1958.6267358596131 -999922.47514168301
 -19168.559774835649 2283.9880609070119 -999813.65749558352
 47629.503550255133 1156.7041560068067 -998864.40142146032
 41310.871568193048 998.83980630899532 -999145.84231198078
 34343.09032514484 735.48502409285322 -999409.83145489346
 28782.766955943338 460.36044497867408 -999585.58432713524
 24747.380195950056 222.20172504184441 -999693.71199374378
 21932.31054463279 31.585871632312756 -999759.45744789368
 20008.958741914601 -117.32763041690343 -999799.79386089672
 18712.632631563476 -234.18970215042873 -999824.87593337032
 17848.807786299934 -327.76715008776841 -999840.64361742325
 17279.981138299481 -404.86136607599349 -999850.60801058379
 16910.635175380372 -470.42880377006941 -999856.89431773475
 16674.808691961633 -527.97033870374139 -999860.82631654688
 16526.875102623733 -579.89168604095357 -999863.25371271395
 16435.016160039213 -627.78717194505953 -999864.73891576251
 16376.718000506655 -672.64305774984825 -999865.66630665376
 16335.673304213715 -714.99019917890791 -999866.30834662751
 16299.63745226802 -755.00835684948629 -999866.86702845874
 16258.881770831849 -792.60489268853939 -999867.501492596
 16205.004753926067 -827.46015631330897 -999868.34789916954
 16129.891741265708 -859.0562058867763 -999869.53579697083
 16024.667220592433 -886.67542031384573 -999871.20362933166
 15878.456133919135 -909.38161420707979 -999873.51582881866
 15676.76547162216 -925.96590622395047 -999876.68320222781
 15399.210872346772 -934.86490069005174 -999880.98808414512
 15016.236620056043 -934.02770331314821 -999886.81370944181
 14484.319578901703 -920.7310896946243 -999894.67282339127
 13739.007724304243 -891.31498179172161 -999905.21812037507
 12685.009285387765 -840.84955338874477 -999919.18849047914
 11182.702344650808 -762.79266720808459 -999937.1806846757
 9031.4567299603259 -648.95209165249003 -999959.00498496299
 5954.0931922358977 -490.67632783941264 -999982.15384625737
 1600.1415635473941 -283.53113162512028 -999998.67957766517
 -4367.9282460873419 -39.094421241165286 -999990.45979172364
 -11868.205543528042 196.41333567730652 -999929.5510779639
 -18832.583814813901 340.13224818952068 -999822.59331188933
 47510.665044553134 -438.62318252734724 -998870.63442506327
 41169.912959754904 -450.52490742573519 -999152.05814440199
 34198.965542526523 -461.47906444036937 -999414.9377475275
 28655.041594170158 -471.90370002209926 -999589.24859070685
 24642.566881844512 -483.57436589801699 -999696.2088821315