# OOMMF OVF 2.0
#
# Segment count: 1
#
# Begin: Segment
# Begin: Header
#
# Title: Oxs_TimeDriver::Magnetization
# Desc: Oxs vector field output
# Desc:  MIF source file: /mnt/gpfs/work/plgrid/groups/plggspinsym/MF/switching-obrazki/p-ap/Anisotropy.mif
# Desc:  Iteration: 39500, State id: 276650
# Desc:  Stage: 0, Stage iteration: 39500
# Desc:  Stage simulation time: 5.81552e-09 s
# Desc:  Total simulation time: 5.81552e-09 s
# meshunit: m
# meshtype: rectangular
# xbase: 1.0000000000000001e-09
# ybase: 1.0000000000000001e-09
# zbase: 3.4999999999999998e-10
# xnodes: 35
# ynodes: 35
# znodes: 5
# xstepsize: 2.0000000000000001e-09
# ystepsize: 2.0000000000000001e-09
# zstepsize: 6.9999999999999996e-10
# xmin: 0
# ymin: 0
# zmin: 0
# xmax: 7.0000000000000005e-08
# ymax: 7.0000000000000005e-08
# zmax: 3.4999999999999999e-09
# valuedim: 3
# valuelabels: Magnetization_x Magnetization_y Magnetization_z
# valueunits: A/m A/m A/m
#
# End: Header
#
# Begin: Data Text
 -0 0 -0
 0 0 -0
 -0 -0 0
 -0 0 0
 0 0 0
 -0 0 -0
 0 0 0
 0 -0 0
 -0 0 0
 0 0 0
 0 0 0
 -0 -0 0
 0 0 0
 23644.641165726287 35794.535026232843 -999079.41736700782
 21115.956893604645 35472.368265596211 -999147.55039188126
 18665.566840309253 35092.290054076664 -999209.75165041815
 16750.760530943415 34838.615618685908 -999252.56211000436
 15137.505495197704 34746.181672912309 -999281.52128743776
 13499.703979409673 34816.698679409936 -999302.53451371531
 11497.587455932951 35049.905487579119 -999319.42321162007
 8851.4364092127598 35412.338996865969 -999333.58710706048
 5941.3265422547274 35721.052930536891 -999344.13843102707
 0 0 0
 -0 0 -0
 -0 0 -0
 -0 0 0
 0 -0 0
 -0 0 0
 -0 -0 0
 0 0 0
 0 -0 0
 0 -0 -0
 0 -0 0
 -0 -0 0
 0 0 -0
 -0 -0 -0
 -0 -0 -0
 -0 -0 -0
 -0 0 -0
 0 0 -0
 0 0 -0
 -0 -0 0
 0 0 0
 0 0 -0
 0 0 0
 28920.736220444422 33740.361131874575 -999012.10155190725
 26782.828593077367 32692.450382996645 -999106.54275733232
 25080.854194959506 31074.927119893764 -999202.3316913069
 23253.354693749021 30528.733770820916 -999263.36764130252
 20808.459763005216 29484.215166457605 -999348.63238927268
 18615.727577934536 28789.000614975437 -999412.1512821099
 16866.304434077341 28424.516428135648 -999453.63806459983
 15366.000085376265 28310.811407440193 -999481.05734867649
 13848.186811837479 28421.516523488972 -999500.09760906454
 12040.391781095155 28790.146358365739 -999512.95961504255
 9736.995948243235 29507.465262180645 -999517.13362188276
 7152.8895886758946 30606.890136775255 -999505.9051584875
 5414.6144390558738 31194.442954315171 -999498.66867307364
 3531.3298773500583 32741.13482494944 -999457.6268155002
 990.49506966832178 33728.906087985859 -999430.52775749506
 -0 0 -0
 0 -0 0
 -0 0 -0
 0 -0 -0
 -0 0 0
 -0 0 0
 -0 0 -0
 -0 0 0
 -0 0 -0
 -0 0 0
 0 -0 -0
 -0 0 -0
 -0 0 0
 -0 0 0
 -0 -0 0
 0 0 -0
 0 -0 -0
 -0 -0 0
 34119.585523051348 31185.717375983957 -998931.08116400125
 31551.267225704414 29870.054356379958 -999055.702846042
 28641.694510378067 28858.096207586055 -999173.08991928305
 25891.461977658728 27014.873551378732 -999299.66917019559
 23769.912326437669 25160.031311181872 -999400.80252740136
 21891.81999913618 23676.29607388407 -999479.95538747404
 19972.609950883972 22462.82469727119 -999548.15609772899
 18252.663746172493 21690.614817809743 -999598.09798488254
 16807.053272582289 21288.499613989596 -999632.09369471413
 15525.6129389036 21167.913974571318 -999655.37799825612
 14236.213562238259 21299.117636796196 -999671.78504312306
 12765.847640145512 21719.888286996898 -999682.58941867587
 11005.972177943439 22526.09988148059 -999685.67229932221
 9048.7315994746023 23787.759328352509 -999676.0790188876
 7166.5291053334176 25305.839240789628 -999654.06784592336
 4942.8097246444668 27163.710703555713 -999618.7780613366
 1994.3945823040401 29033.393890984236 -999576.45251847617
 -1001.5909646839335 30072.239562770628 -999547.22610951157
 -4000.4441419380469 31304.113465619434 -999501.90041179943
 -0 0 -0
 -0 -0 -0
 0 0 -0
 -0 0 0
 -0 0 -0
 0 0 -0
 0 -0 -0
 -0 -0 -0
 -0 -0 0
 0 0 0
 0 0 0
 0 0 -0
 -0 0 0
 0 0 0
 -0 -0 -0
 36875.715585604827 27745.405870724109 -998934.61950876354
 33684.566631130161 26847.61243236715 -999071.84710487875
 30058.249127656076 24682.040415887634 -999243.36302038468
 26914.942489935816 22580.640161984495 -999382.65972581203
 24322.265973836231 20605.918632286342 -999491.7826051485
 22297.116666962756 18924.659671125049 -999572.25644005951
 20625.162738829986 17586.458457836612 -999632.59207616257
 19129.581601234881 16576.39212144175 -999679.58983466204
 17813.29148373886 15916.37335094745 -999714.6371369526
 16670.127687068412 15560.160747977929 -999739.96030987683
 15630.234735001432 15453.73376832541 -999758.40975444985
 14590.278542292404 15577.964227402506 -999772.19945474982
 13447.114258474909 15958.328893245573 -999782.22971657931
 12132.394525265761 16653.000689636116 -999787.71875389339
 10643.072745122114 17706.154345025509 -999786.58577761077
 8976.7042152596841 19086.11265375945 -999777.54479944159
 6914.0768144840113 20805.958968231651 -999759.62491651741
 4230.2278954479607 22829.306137421128 -999730.42764199001
 951.79049132534146 24975.295476647592 -999687.6155633392
 -2977.936586813124 27169.370521211436 -999626.40881439601
 -6513.3641585848027 28099.713071909322 -999583.90453859058
 -0 -0 -0
 0 -0 0
 -0 0 -0
 -0 -0 -0
 0 -0 -0
 0 -0 -0
 0 0 -0
 0 -0 -0
 -0 0 -0
 0 0 -0
 -0 0 0
 -0 0 0
 -0 0 -0
 38425.213516545373 25664.365029972123 -998931.85119597428
 35490.21635638312 24107.454654070625 -999079.21366280003
 31538.546244520461 21601.192058021734 -999269.08718445536
 27931.179583223391 19125.452907162089 -999426.8688894579
 25039.822606061014 17045.473423574167 -999541.12427634664
 22785.993010564784 15340.315780195282 -999622.66542645299
 21038.416044308451 13983.356977478632 -999680.874468441
 19635.843099459107 12938.47871226813 -999723.47648456541
 18451.67499594258 12172.304442837383 -999755.655495079
 17429.648989329864 11665.261575674233 -999780.04031310813
 16530.937539806309 11385.370511028575 -999798.5304261964
 15702.668326532279 11302.688058792424 -999812.82020689896
 14879.679135010738 11407.006149329349 -999824.22223086189
 13996.636284978647 11713.365034367036 -999833.43175364856
 12999.939095405565 12254.860984988605 -999840.39724635775
 11847.915731403193 13063.523177584195 -999844.47353326448
 10474.917264429951 14156.845209029423 -999844.91789578611
 8734.6194913679246 15568.945590508596 -999840.64448067942
 6450.2800276913031 17339.314183366019 -999828.85639054002
 3471.5130295745239 19491.256719114161 -999804.00054650474
 -326.83235780556186 22043.995487222099 -999756.94818469207
 -4574.9048657067178 24633.613316122755 -999686.07839684444
 -7858.6766910531505 26231.956108228896 -999624.99252439721
 0 -0 -0
 -0 0 -0
 0 0 0
 0 0 -0
 0 -0 0
 -0 0 0
 -0 0 0
 0 -0 0
 -0 -0 -0
 -0 -0 -0
 0 0 0
 39557.520345700759 24406.510505305101 -998919.17832678242
 36730.611951245002 22492.383615209557 -999072.04686398525
 32797.843737961994 19593.77596738072 -999269.92619085696
 29001.705185798804 16832.024060596548 -999437.63390335627
 25848.510532668552 14557.05788458847 -999559.87643011508
 23391.179740932272 12783.66660937294 -999644.65215312771
 21507.184402210405 11417.389709496831 -999703.49815898435
 20053.273349522598 10375.409309914399 -999745.07606170361
 18899.705975920293 9595.9918453541031 -999775.33378981077
 17948.133715921791 9035.7080450140038 -999798.08985426684
 17136.586839856736 8665.1848835969358 -999815.60898118257
 16420.828535420053 8459.6909266387665 -999829.38045430323
 15758.510552988793 8401.3185195614587 -999840.53088094224
 15104.893191035122 8484.7459366584408 -999849.9143811923
 14414.615101685476 8719.3666091385658 -999858.08568886702
 13643.167899159234 9126.1882527669823 -999865.27925398562
 12741.617795712231 9731.5732190659437 -999871.46556876507
 11639.256795034897 10565.704245026291 -999876.43916389288
 10224.612945736701 11673.464306465254 -999879.58651089377
 8353.3293674428605 13118.359338136061 -999879.05795488844
 5863.5354921949483 14983.32191851716 -999870.55112940387
 2606.8335340054546 17362.391409016302 -999845.86401279189
 -1382.981966703175 20236.3165889722 -999794.26826312148
 -5614.4957544674198 23236.394162669629 -999714.23288044694
 -8795.6106154423669 25199.580405587301 -999643.7457320902
 0 -0 0
 0 0 0
 0 -0 -0
 0 -0 0
 0 -0 -0
 -0 -0 0
 0 -0 -0
 0 -0 0
 0 0 -0
 40832.090907271566 23343.291122628721 -998893.30316691205
 37894.918913258181 21374.893385279676 -999053.09621327196
 33888.00985780084 18329.521512035953 -999257.54009115067
 30000.085600763836 15378.411455066689 -999431.58811649808
 26699.488285357143 12941.98359135725 -999559.72427165194
 24075.976176538246 11060.715550696508 -999648.94235059002
 22055.189963748548 9648.7334453335188 -999710.19327531313
 20509.322541945538 8597.7833482196565 -999752.6923246407
 19314.185623595757 7820.034396179849 -999782.88107755652
 18366.801753623604 7252.4970384705211 -999805.01192985114
 17589.929749671126 6852.1390503810817 -999821.80540426099
 16929.783832125304 6590.1534482944417 -999834.96252977953
 16346.965380225356 6446.6860093724708 -999845.59656096634
 15807.768359895457 6409.7975269201916 -999854.50389301311
 15279.524791615868 6476.6049048600225 -999862.28537286504
 14728.682375900808 6653.7838631461482 -999869.38800813991
 14118.730276221893 6956.5221483474352 -999876.1264551658
 13405.133273600193 7407.1325368406506 -999882.71151645505
 12526.23186603881 8036.3243795140743 -999889.24937000161
 11394.277797265322 8888.8955771559758 -999895.57353200496
 9893.8137533051577 10029.344058277567 -999900.75742904388
 7885.6096468316509 11546.20799488754 -999902.24634282943
 5223.7822008980356 13547.273082662625 -999894.58618973487
 1814.9665001163378 16114.514084475892 -999868.5055208134
 -2272.6132716453531 19196.044423703686 -999813.15609837859
 -6588.0728414662253 22352.879691015991 -999728.43615941727
 -9893.5269897373273 24375.256907491897 -999653.92260241613
 0 -0 0
 0 -0 0
 0 0 -0
 0 0 -0
 0 0 -0
 0 -0 0
 -0 0 -0
 42844.767577962019 21906.29105811059 -998841.54914744478
 39493.312170085992 20223.192504068811 -999015.16543983424
 35175.893226737047 17307.005184780232 -999231.26657808048
 31067.402334620081 14361.869769639874 -999414.10496795527
 27597.225883656527 11867.599911438827 -999548.67475069372
 24824.663510561804 9917.4246973366153 -999642.62652658008
 22673.453545072356 8453.9872871812931 -999707.17942970071
 21025.491035438114 7378.418640121401 -999751.71300933009
 19761.01333499917 6595.2765963937381 -999782.97879019286
 18776.948671536895 6029.0342503398906 -999805.51956097689
 17991.991988907608 5625.2070370022329 -999822.30684760271
 17345.746057895631 5346.3939787636818 -999835.25701243372
 16794.884635782641 5167.7643171143018 -999845.60111150832
 16307.361063820357 5073.4659856122389 -999854.1543235326
 15856.876835838557 5054.9587331600997 -999861.49383263022
 15418.912088857471 5110.6578123580466 -999868.06045933918
 14967.941305123102 5245.8235551506841 -999874.21312298789
 14474.608302885201 5472.3257112579777 -999880.2625143613
 13901.683771751241 5808.8046601375927 -999886.49404656445
 13198.546905927422 6282.3468016595016 -999893.15953167505
 12295.620451667348 6932.1516944745763 -999900.37653287919
 11100.850409352659 7813.9641183368558 -999907.85229687369
 9498.8110664759424 9003.780286538853 -999914.34859635611
 7355.5862206402708 10596.285033077169 -999916.80358660268
 4536.8821842110374 12687.241614162387 -999909.22117973829
 946.68018703662983 15326.874100395316 -999882.08841189556
 -3379.1503294788104 18409.493875370164 -999824.82059523975
 -8030.9956319244757 21436.879918529798 -999737.94730845268
 -11787.343079426802 23166.308601510045 -999662.13326748915
 0 0 0
 0 0 0
 -0 0 0
 0 -0 0
 -0 0 -0
 46064.19642659909 19316.865871730479 -998751.69511769316
 42111.324773323104 18537.797060793539 -998940.93239088391
 37136.479183491254 16141.293568582172 -999179.83394171169
 32526.367203365971 13440.366356135199 -999380.50410680147
 28711.726597748264 11036.559414003892 -999526.80359862151
 25703.951530135397 9100.6117925663493 -999628.17374298593
 23385.176549239233 7623.0851128650038 -999697.46528193355
 21614.540038338553 6531.221180830149 -999745.04490335833
 20262.19949978829 5740.222638910881 -999778.22196499479
 19219.317807539217 5174.3793955287074 -999801.90218907048
 18399.953360699008 4774.1007557383036 -999819.30851444241
 17739.208001958341 4495.8489578488898 -999832.53989936307
 17189.743087850744 4309.3772714882143 -999842.95866906294
 16717.590451693308 4194.6114789057074 -999851.45266886055
 16297.716968303019 4139.1340877976145 -999858.61600059457
 15909.986233382224 4136.6780913238572 -999864.87098628597
 15535.892754009043 4186.4214381190268 -999870.54657684476
 15155.868144850494 4292.7155508298165 -999875.92843011068
 14746.614203046469 4465.0895091597695 -999881.29312694992
 14277.928015971269 4718.761620433158 -999886.93063782982
 13708.862954317776 5076.0466068526057 -999893.1447046455
 12983.597144708041 5568.8140677526571 -999900.2022777386
 12027.558934833369 6241.511411907165 -999908.18646581948
 10744.072224243975 7153.756931885473 -999916.69086669385
 9012.355662078 8380.1145650447343 -999924.27269533614
 6688.7765717199027 10002.513993520819 -999927.6023701831
 3615.2859675875175 12088.30760265748 -999920.39809510647
 -348.7027547560034 14637.817335783688 -999892.80060916184
 -5221.8731618513921 17465.155647479394 -999833.83638427174
 -10608.115194970924 19944.279552861404 -999744.81424267858
 -15101.346754521286 20709.202344418638 -999671.48517123249
 0 0 0
 -0 -0 -0
 0 -0 -0
 0 0 -0
 44932.129168211708 16461.891804181862 -998854.39874219825
 40086.380259685713 14749.19619920464 -999087.35520431492
 34762.975322886166 12453.970739815199 -999317.98450719006
 30325.250611908094 10263.404155184577 -999487.38947045861
 26884.541108014782 8426.8237911962788 -999603.02625102317
 24280.122131078355 6987.6976757841085 -999680.77292228234
 22321.151359336203 5906.6343976619528 -999733.40339916933
 20843.208430202008 5118.0100328523631 -999769.65678882203
 19716.557190374133 4555.1356728328692 -999795.23309103702
 18842.577142634182 4160.5271561326172 -999813.80631615955
 18148.198566001407 3888.9747491553735 -999827.74454613426
 17580.52222983586 3707.0700318993695 -999838.57840648689
 17102.000258029126 3591.3327516455665 -999847.30029952142
 16686.158268551117 3526.1189820453533 -999854.55872699874
 16313.799104330059 3501.8887589767196 -999860.78867705539
 15969.740758137355 3514.0257404618796 -999866.30056383694
 15640.081876940641 3562.1758038762778 -999871.34109465533
 15309.826539418002 3649.9589850377897 -999876.1358342045
 14960.564616545204 3785.0205957507783 -999880.92047275486
 14567.913973392631 3979.4937438687034 -999885.96325381333
 14098.54376177638 4251.0328450531615 -999891.57401367638
 13506.744953044254 4624.4339259581611 -999898.0860325906
 12730.503986924979 5133.618651459421 -999905.78567572066
 11686.889578297651 5823.3800268868581 -999914.74879463972
 10266.563668779967 6749.6774881423298 -999924.51691327221
 8327.5471518615941 7976.2856587294664 -999933.51320251473
 5690.0168759274447 9564.0718703770181 -999938.07420120272
 2141.4603837409186 11544.99285960608 -999931.06126737397
 -2512.3579879780395 13863.735995148609 -999900.73751427792
 -8213.8192637021839 16252.108617335331 -999834.18732237467
 -13659.761925800325 18001.118287482925 -999744.6527211488
 -0 0 -0
 -0 -0 -0
 0 0 -0
 48557.127970833368 14174.095022342492 -998719.83076011948
 44076.30690527433 13494.050663910817 -998937.02993045142
 38101.947527565055 11539.474077638233 -999207.22682165285
 32762.938217129104 9538.2569454624045 -999417.63619310979
 28609.161574360125 7820.4483954197985 -999560.08146629529
 25516.095679357692 6448.8027847400135 -999653.61090926139
 23238.698428762204 5402.2168294943303 -999715.34896122513
 21556.610767538848 4630.4944108789605 -999756.90597951226
 20299.42851744076 4077.4751071729361 -999785.63072221423
 19341.995484482832 3691.4121135405567 -999806.11154727708
 18594.467334341331 3429.070302780066 -999821.22765092878
 17993.347294822648 3256.6039091917783 -999832.80301463732
 17494.434840193022 3148.8430747032025 -999842.00228681788
 17067.388941825888 3087.9385397378655 -999849.57312101859
 16691.452347548158 3061.9449153563951 -999855.999587873
 16352.005973462268 3063.6187345981807 -999861.60349364998
 16037.742686143602 3089.5572360033611 -999866.6138268736
 15738.308968797583 3139.6591916612206 -999871.21579279553
 15442.230499210449 3216.8817972767315 -999875.5868550404
 15134.914085094724 3327.2641530088222 -999879.92463539983
 14796.503313530713 3480.2697993402367 -999884.4689321944
 14399.390724230412 3689.4863197731388 -999889.51651543344
 13905.177160158915 3973.6986123290794 -999895.42241550609
 13260.791198351699 4358.1999314948698 -999902.57400916377
 12393.306043172208 4876.0534156401754 -999911.31110134348
 11202.839052084046 5568.7092934711454 -999921.73987466539
 9552.9750651345294 6485.0072795877932 -999933.3404522466
 7259.2634189937689 7676.9077624490956 -999944.1825331155
 4081.3665784237205 9188.8717352749791 -999949.45226400578
 -257.18324968093572 11034.610214369131 -999939.08376170264
 -5930.5245993501603 13143.556273792807 -999896.03249860613
 -12444.713199818825 15181.565814676749 -999807.30602090945
 -17586.008366058813 15869.997074144105 -999719.39838267385
 -0 -0 0
 0 0 -0
 47631.729308626607 11802.821432315099 -998795.23014945677
 42346.708569845476 10655.418941858066 -999046.15424937918
 36217.674669147644 8921.8058027745319 -999304.09857198992
 31124.736469972529 7298.9529583046387 -999488.85739931453
 27294.151299162448 5979.9420854299642 -999609.55857650388
 24506.976218064097 4967.7608713481459 -999687.31584859709
 22491.19107621699 4218.2649588950089 -999738.14199754817
 21021.241496882631 3679.9853206247162 -999772.25662346219
 19929.92471020329 3305.2622313186812 -999795.91584614303
 19098.632938165898 3053.5570405407789 -999812.94150920713
 18445.045198747346 2892.1342884256001 -999825.69274192664
 17912.907096747309 2795.6482351648774 -999835.6425484583
 17464.371647298936 2745.2294861567198 -999843.71750690788
 17074.367446702945 2727.4237026258957 -999850.50239335338
 16726.400937746563 2733.1776303858896 -999856.36831082404
 16409.33247618371 2757.0031870522389 -999861.55678729492
 16114.824278131206 2796.3497862063109 -999866.2374869741
 15835.235709333818 2851.2025496993392 -999870.54959832213
 15561.785998224317 2923.8767148509874 -999874.63302231138
 15282.797156484143 3019.0233957016408 -999878.65344191133
 14981.830609664261 3143.8481070100202 -999882.82362017967
 14635.498134568092 3308.5831873495254 -999887.4213988519
 14210.678370440999 3527.2010527956345 -999892.80199078587
 13660.745250606988 3818.3379932491503 -999899.39710661257
 12920.241678781609 4206.2957816748794 -999907.6829541612
 11897.236888002875 4721.9225614865481 -999918.0762451262
 10462.609036806634 5403.0160466763664 -999930.66821142251
 8436.3693694890208 6293.6466352764737 -999944.60730777064
 5575.1763985436364 7440.8563236284317 -999956.77459843073
 1579.6363640554821 8883.4874415622708 -999959.29337140173
 -3811.9739840129228 10611.697968729441 -999936.42833960475
 -10433.24926684638 12418.985448061076 -999868.44940230832
 -16446.452514604691 13576.806565243047 -999772.56639856577
 0 0 0
 -0 -0 0
 46181.097125728986 9984.6683711742116 -998883.18269244162
 40607.898694728043 8496.7464322798678 -999139.0312982793
 34617.960431207044 6910.7201931798163 -999376.7251452253
 29829.228549998224 5596.0797059675433 -999539.34440623014
 26302.469250774713 4591.6206377961571 -999643.48501414771
 23773.492844874487 3853.8003797378628 -999709.94256363576
 21965.493596052835 3327.6065721023451 -999753.19160559971
 20658.232424313428 2964.0958708445178 -999782.20206641592
 19691.726920587429 2723.1259057295483 -999802.3907133782
 18954.463010585176 2572.726009790948 -999817.03796887712
 18370.5413452924 2487.9504842642491 -999828.15189064806
 17889.280919905566 2449.7589971306211 -999836.97286558931
 17477.515387032527 2444.0120795188295 -999844.2695044321
 17114.017596131689 2460.580400933914 -999850.51680029149
 16785.424765869651 2492.5988243480979 -999856.00786639773
 16483.187557808211 2535.8623974645393 -999860.9272943089
 16201.198237887609 2588.3838491285996 -999865.40166399721
 15933.865288484772 2650.0901438715687 -999869.53596916713
 15674.442393278574 2722.6693099108152 -999873.44145521161
 15413.447695926847 2809.5517049596128 -999877.25849193207
 15136.987814281725 2916.0550139462271 -999881.17705208645
 14824.773060892991 3049.6927075453418 -999885.45617889764
 14447.525844310923 3220.6758668105972 -999890.44212050491
 13963.368328273153 3442.5935840143593 -999896.58109943755
 13312.595197437571 3733.2783970554315 -999904.41415243247
 12410.066274600427 4115.8290976051603 -999914.5214496582
 11134.435831691817 4619.7945142571789 -999927.33827881503
 9314.1471602972542 5282.4247776222737 -999942.66968218982
 6713.2302746166688 6149.4010350154203 -999958.55784436909
 3030.630544632103 7272.00281529929 -999968.96614522813
 -2037.7435977184705 8688.6479269887022 -999960.1767061681
 -8495.3802833993104 10351.712243029368 -999910.33126349805
 -14783.370176874781 11881.937753217835 -999820.11958223884
 -0 0 -0
 50591.609573030924 9146.2162487139522 -998677.54343889281
 45752.4319598777 8277.0526133257372 -998918.51788311196
 39220.130204720757 6673.7103065897127 -999208.30810070259
 33350.362951030911 5295.8072043212687 -999429.69123249955
 28841.254868194421 4263.0609730609913 -999574.91381525167
 25573.646820310463 3519.806387272653 -999666.74424595421
 23253.886131722829 2998.6940550726295 -999725.09452035709
 21608.211367769636 2644.0885709717818 -999763.01891854068
 20424.942518640597 2413.1118055838006 -999788.47693625896
 19552.141456339101 2273.153488971303 -999806.25450018421
 18884.894226539269 2199.4111643255851 -999819.24534416851
 18352.605074415143 2173.0364057630059 -999829.21531617676
 17908.855930521575 2179.815258093432 -999837.24739814538
 17523.914957034263 2209.1987813446299 -999844.00375524734
 17179.324845973832 2253.5770719014145 -999849.88482682628
 16863.979241035737 2307.7134781400819 -999855.12983764859
 16571.208130940955 2368.3202070852622 -999859.88324388617
 16296.540851677684 2433.7388470214687 -999864.24062044267
 16035.900881585145 2503.7316103008438 -999868.281930645
 15784.056162096722 2579.3601510726853 -999872.09705655999
 15533.156804026321 2662.9718217308268 -999875.80709845084
 15271.192681133249 2758.2847873305809 -999879.58401955978
 14980.150516229576 2870.6051673270663 -999883.67059197649
 14633.581876224913 3007.1786229515856 -999888.40135197144
 14193.164255015225 3177.7197314573832 -999894.22249842936
 13603.686610934788 3395.144497554772 -999901.70152092073
 12785.724354138114 3676.5966064147988 -999911.50002894423
 11625.255479735675 4044.8826401901447 -999924.24331019109
 9960.0092378928894 4530.5081107450733 -999940.13456418458
 7564.6621472191364 5174.3863758249336 -999957.99992411281
 4144.5788382012988 6030.6372285894149 -999973.22658202774
 -628.47163211843076 7166.0313651599154 -999974.12617421302
 -6929.0039217904741 8638.0612546165084 -999938.68452141271
 -14119.150676447887 10332.996732000307 -999846.9276657867
 -19752.95998750933 11237.371709355564 -999741.7376746845
 50326.883680915467 6466.7809734432103 -998711.86311308504
 44762.015505862852 5849.7222561819108 -998980.5517212929
 38062.317979745545 4813.6968963420059 -999263.77312109096
 32392.968842416743 3873.8502334494351 -999467.7027567937
 28125.643100230158 3162.0231641521677 -999599.39466253563
 25063.746080892714 2659.2927279809696 -999682.31793634302
 22904.824263977982 2319.9376047798919 -999734.95833393082
 21381.611317603132 2102.5977106408686 -999769.17625036323
 20290.726690353949 1975.0110450624113 -999792.17127448483
 19487.236425164778 1912.8849392686195 -999808.27586478763
 18871.619789653625 1897.9955795792141 -999820.11361009057
 18377.36883281737 1916.6305467603859 -999829.28484923369
 17961.195978552019 1958.4662968401226 -999836.76660182094
 17595.802234988354 2015.7901743603234 -999843.14986585767
 17264.657597357535 2082.9424641703936 -999848.78504138638
 16958.215403469338 2155.919340451288 -999853.87479477585
 16671.114825929173 2232.0751503653914 -999858.53587944317
 16400.037401165817 2309.9160612769592 -999862.84212437365
 16141.991484773667 2388.953881714267 -999866.85564141814
 15892.84108494288 2469.6328975672677 -999870.65089220414
 15645.929286941313 2553.3128813236522 -999874.3348491739
 15390.623359024428 2642.3341531011024 -999878.06595746661
 15110.577999153305 2740.1602672646945 -999882.07402385259
 14781.426468400052 2851.6370677353889 -999886.68237835483
 14367.505419096215 2983.383022240962 -999892.3313106139
 13817.063917532803 3144.3794082683376 -999899.59577091318
 13055.268033454298 3346.8275255829162 -999909.17523647565
 11974.276052263171 3607.4073690285377 -999921.79860481992
 10420.099991395571 3949.0407319569049 -999937.91136923432
 8177.8447114895826 4403.0806808875459 -999956.86693796562
 4963.0252426585193 5010.8148611101324 -999975.12974816933
 445.03552306173856 5819.0588254448321 -999982.97010387597
 -5618.0017722689663 6848.1477616787706 -999960.76969465206
 -12916.624837150332 7959.8553952556167 -999884.89412777044
 -19317.018049870625 8601.2855030606224 -999776.41035451298
 49986.041230592207 3959.2499426016811 -998742.06881556031
 44098.56494118827 3670.5660524208515 -999020.4419905442
 37325.769349182534 3152.0157961596715 -999298.17959351465
 31774.072636707486 2636.383015485656 -999491.59966088424
 27664.404860618099 2228.7146471550623 -999614.7825711309
 24743.276775074515 1942.3913528112828 -999691.95123811229
 22696.678335713837 1759.0641297757975 -999740.84966350801
 21259.721435505835 1655.4613521281274 -999772.61599435518
 20234.220035396655 1611.4267662871794 -999793.96859719849
 19480.031612538482 1611.1678408429998 -999808.94800284877
 18901.381882572285 1642.6442403892027 -999820.00354205188
 18434.562881272173 1696.691897961219 -999828.62938004511
 18038.370686349048 1766.3097806599576 -999835.73517490388
 17687.084191041373 1846.139637614285 -999841.86690759135
 17365.39706705945 1932.1103078522642 -999847.34331519925
 17064.749330401326 2021.1825729318268 -999852.34367445344
 16780.612547254903 2111.1774359345736 -999856.96675693209
 16510.419129337271 2200.6497529151052 -999861.27197768737
 16251.902505852304 2288.8141449287632 -999865.30942659976
 16001.683342569 2375.5006233328845 -999869.14300171938
 15753.943920159718 2461.1591931175676 -999872.86989216146
 15499.03502247603 2546.9005080543129 -999876.63899661857
 15221.806670568809 2634.6012631824215 -999880.67061918334
 14899.39170842726 2727.0731927968031 -999885.27901880804
 14498.052534030765 2828.3392800306151 -999890.89753314492
 13968.569682063182 2944.0396346014386 -999898.10065409518
 13239.495772708027 3082.0358659555991 -999907.60413480469
 12207.544696224313 3253.2454378129964 -999920.19293872209
 10724.683271614369 3472.6724250140664 -999936.45883873641
 8582.9479310159186 3760.183045669517 -999956.09605035977
 5502.7991183563881 4139.3282623897803 -999976.29230067204
 1145.3266914530907 4628.9023799473371 -999988.63068013277
 -4787.1961692773239 5214.0524846638673 -999974.9478909577
 -12149.157761839515 5780.4719752649989 -999909.48795849585
 -18900.352673204034 6074.6295166855161 -999802.91835194372
 49771.198151835975 2057.2482090440822 -998758.52715475578
 43767.074224846278 1963.6649323392005 -999039.83265625103
 36956.662649972379 1775.6074710683222 -999315.29173924122
 31455.31744398189 1577.4829193752007 -999503.9142255208
 27427.984928552873 1421.3297499648543 -999622.77158161066
 24587.411531782298 1321.3113775743723 -999696.81070333044
 22608.383484733953 1273.0715688381472 -999743.58726874948
 21224.970447726628 1266.9569876040521 -999773.9221691495
 20241.060239174029 1293.4405462520399 -999794.29208810127
 19518.961169573799 1344.5895002717746 -999808.58279669541
 18964.936043640631 1414.0953336101629 -999819.14941415691
 18516.799070465306 1496.9551243672145 -999827.42874835129
 18134.452958559163 1589.1471613850865 -999834.2943844212
 17792.983936688281 1687.3951732298644 -999840.26845299569
 17477.696826023595 1789.0015661637667 -999845.65288201056
 17180.518238486005 1891.7449982332525 -999850.61438892898
 16897.342572245656 1993.8077476750757 -999855.24179486162
 16626.002497728725 2093.7389054032074 -999859.58629116591
 16364.649571711097 2190.4292449169766 -999863.69084196584
 16110.369418742515 2283.1134590564247 -999867.61293189437
 15857.890025491635 2371.3816842461042 -999871.443673059
 15598.218236312408 2455.2215413783092 -999875.32596571022
 15317.012097770188 2535.0782458730914 -999879.47399608302
 14992.413595743414 2611.9603138770685 -999884.19589365122
 14591.970637547656 2687.5882208259936 -999889.91957238386
 14068.127262686152 2764.6232103083466 -999897.21704474522
 13351.612792805627 2846.980973211977 -999906.8102254176
 12341.95041952604 2940.2423871837996 -999919.51237814443
 10894.48335268534 3052.0418532924932 -999935.99558821949
 8804.4049619137641 3192.0247945394012 -999956.14575389132
 5792.2453605000492 3370.1331143600923 -999977.54579614196
 1508.3802236389388 3590.3929296076903 -999992.4169051043
 -4380.7550156683883 3835.9255207174879 -999983.04718674719
 -11792.919251659194 4047.1745001846834 -999922.27069612208
 -18684.937822327709 4130.0188691841568 -999816.89125695208
 49721.44037004705 509.79051813401179 -998762.99414883973
 43689.719461013912 540.60149009732095 -999045.00207120134
 36869.189500394918 581.52287949038373 -999319.93110150914
 31384.251695782474 629.8854181145 -999507.19456633006
 27386.400232179174 686.45209348569267 -999624.68650281266
 24577.063177886368 751.75752200706177 -999697.65570705361
 22626.135585510845 825.72424232220555 -999743.65522764972