# OOMMF OVF 2.0
#
# Segment count: 1
#
# Begin: Segment
# Begin: Header
#
# Title: Oxs_TimeDriver::Magnetization
# Desc: Oxs vector field output
# Desc:  MIF source file: /mnt/gpfs/work/plgrid/groups/plggspinsym/MF/switching-obrazki/p-ap/Anisotropy.mif
# Desc:  Iteration: 34600, State id: 242350
# Desc:  Stage: 0, Stage iteration: 34600
# Desc:  Stage simulation time: 5.09445e-09 s
# Desc:  Total simulation time: 5.09445e-09 s
# meshunit: m
# meshtype: rectangular
# xbase: 1.0000000000000001e-09
# ybase: 1.0000000000000001e-09
# zbase: 3.4999999999999998e-10
# xnodes: 35
# ynodes: 35
# znodes: 5
# xstepsize: 2.0000000000000001e-09
# ystepsize: 2.0000000000000001e-09
# zstepsize: 6.9999999999999996e-10
# xmin: 0
# ymin: 0
# zmin: 0
# xmax: 7.0000000000000005e-08
# ymax: 7.0000000000000005e-08
# zmax: 3.4999999999999999e-09
# valuedim: 3
# valuelabels: Magnetization_x Magnetization_y Magnetization_z
# valueunits: A/m A/m A/m
#
# End: Header
#
# Begin: Data Text
 -0 0 -0
 0 0 -0
 -0 -0 0
 -0 0 0
 0 0 0
 -0 0 -0
 0 0 0
 0 -0 0
 -0 0 0
 0 0 0
 0 0 0
 -0 -0 0
 0 0 0
 24938.961784465209 35958.21964726071 -999042.06849607301
 22284.765950376452 35552.519188036589 -999119.31599079852
 19620.951659215232 35126.012665939998 -999190.26290801051
 17441.177469517967 34869.215369735182 -999239.68253266241
 15535.935720578102 34806.605930786449 -999273.30339845701
 13600.241033865021 34933.928912961353 -999297.07997898455
 11316.42286774497 35251.759122395786 -999314.39099627477
 8432.0725020209975 35730.826096247729 -999325.87688891555
 5368.6885955963644 36171.397000316851 -999331.17995077511
 0 0 0
 -0 0 -0
 -0 0 -0
 -0 0 0
 0 -0 0
 -0 0 0
 -0 -0 0
 0 0 0
 0 -0 0
 0 -0 -0
 0 -0 0
 -0 -0 0
 0 0 -0
 -0 -0 -0
 -0 -0 -0
 -0 -0 -0
 -0 0 -0
 0 0 -0
 0 0 -0
 -0 -0 0
 0 0 0
 0 0 -0
 0 0 0
 30856.748958865977 33257.874149314106 -998970.35734337894
 28561.021904485155 32129.420208654792 -999075.55689488631
 26603.599099793671 30539.162662409028 -999179.46739252831
 24562.20664454241 30201.722685774177 -999241.98968596291
 21964.214950569021 29202.220912624842 -999332.17878510011
 19570.455766491588 28518.686372485587 -999401.66189009277
 17568.036110939349 28175.981417900111 -999448.58706105698
 15784.246059051808 28102.125260808247 -999480.42908912082
 13976.570670392373 28269.931436442548 -999502.60952579521
 11897.902471508174 28709.922531688895 -999516.97347518953
 9367.9248613396503 29502.185550781483 -999520.81670744589
 6604.5280361666764 30638.631705816497 -999508.70654367749
 4638.1430900188652 31115.933393639942 -999505.02065658453
 2475.3062554472212 32702.823367231307 -999462.05440864712
 -250.9291269295212 33809.891592535736 -999428.25068389694
 -0 0 -0
 0 -0 0
 -0 0 -0
 0 -0 -0
 -0 0 0
 -0 0 0
 -0 0 -0
 -0 0 0
 -0 0 -0
 -0 0 0
 0 -0 -0
 -0 0 -0
 -0 0 0
 -0 0 0
 -0 -0 0
 0 0 -0
 0 -0 -0
 -0 -0 0
 36340.689766260388 30238.239432767958 -998881.87647154706
 33623.111801181592 28853.584283959754 -999017.99634780036
 30559.081172143353 27946.220471823763 -999142.20775586006
 27661.397362753807 26130.019710900131 -999275.77233006491
 25337.855567966595 24352.220448854434 -999382.29043465992
 23260.873376471489 23015.768880696618 -999464.45967457711
 21161.507078301427 21906.86523385462 -999536.03230388893
 19232.781568864029 21201.94685930583 -999590.20481520286
 17537.495262979344 20854.63219465335 -999628.69135290768
 15978.377741932381 20789.102115628531 -999656.193237436
 14404.09343984877 20977.785442045937 -999676.1748737056
 12663.775957076534 21453.000365576027 -999689.65061854257
 10665.692222940415 22295.463060644321 -999694.53101250739
 8495.5719310484164 23549.967547313674 -999686.56302167266
 6383.6998182814414 25013.505800343861 -999666.73091796262
 3926.1073865226672 26871.289251983708 -999631.19173759571
 802.21568068754857 28779.749970015742 -999585.45529717719
 -2360.2491656939314 29793.738838859266 -999553.28139618353
 -5526.0770431600404 31132.133324726652 -999500.00137426937
 -0 0 -0
 -0 -0 -0
 0 0 -0
 -0 0 0
 -0 0 -0
 0 0 -0
 0 -0 -0
 -0 -0 -0
 -0 -0 0
 0 0 0
 0 0 0
 0 0 -0
 -0 0 0
 0 0 0
 -0 -0 -0
 39028.362626521222 26422.657837369163 -998888.69753516663
 35811.832456120508 25543.480512306542 -999032.0531691924
 32103.295221196546 23374.690040786129 -999211.19004014251
 28848.504815203854 21346.899014235492 -999355.82935829367
 26128.900522859061 19456.52166029609 -999469.22129815933
 23939.707370824821 17881.95058336667 -999553.46342971222
 22082.538023793881 16675.011857250556 -999617.07943291368
 20389.572937269157 15783.286993719041 -999667.52131251607
 18849.753620968055 15218.368248593715 -999706.50095729565
 17451.113303760947 14941.085592509307 -999736.07647507475
 16131.840103039707 14904.52641138012 -999758.78032020421
 14804.028788554253 15090.90675886484 -999776.52766246849
 13381.287212403398 15520.811945010775 -999790.0007247054
 11807.022606909539 16242.210464002032 -999798.37208129268
 10077.558785854688 17289.866829668834 -999799.73160324944
 8181.3259523557999 18640.537166356346 -999792.77666915103
 5911.2486000374392 20341.704622968224 -999775.61092128092
 3063.6221098194987 22356.660842985737 -999745.36454815336
 -352.06175177387541 24497.69880019538 -999699.8243502985
 -4385.1302336316712 26748.682790630988 -999632.57179915882
 -7961.9926159095639 27720.037829748857 -999584.01656704233
 -0 -0 -0
 0 -0 0
 -0 0 -0
 -0 -0 -0
 0 -0 -0
 0 -0 -0
 0 0 -0
 0 -0 -0
 -0 0 -0
 0 0 -0
 -0 0 0
 -0 0 0
 -0 0 -0
 40503.484032444758 23920.617975067791 -998893.02320965508
 37566.100144119322 22420.432574479353 -999042.59785213135
 33615.988872115406 19953.550496277217 -999235.61841776967
 29979.055601085412 17528.60465556923 -999396.82020911796
 27017.71411272652 15531.336008929882 -999514.29240701743
 24657.957618607572 13925.940231255414 -999598.94623531634
 22766.102513743834 12682.238888513759 -999660.37502399203
 21186.588095680028 11760.333860158902 -999706.36840642418
 19797.762987889026 11112.774092483673 -999742.24419729575
 18541.659406231731 10712.000371024855 -999770.7036688535
 17379.872636092303 10525.830232818551 -999793.55215217464
 16266.491295503884 10526.041196400649 -999812.2842402294
 15148.206208398462 10701.972827262724 -999827.98501855915
 13972.851153193331 11065.000506836128 -999841.14998055296
 12697.46189385483 11642.676192556704 -999851.60026502388
 11286.043228750646 12463.942308765801 -999858.62769211666
 9676.9936509678919 13551.668107066447 -999861.34443001379
 7734.5971617942823 14952.251915570163 -999858.2930442685
 5293.6914524360482 16709.277894212479 -999846.3766314605
 2205.5093997478871 18851.320584166901 -999819.86549604067
 -1651.2881853247059 21414.393263633436 -999769.32189804653
 -5918.4323708106413 24024.653574833908 -999693.84722467989
 -9220.2827439304965 25637.739423963085 -999628.77744858421
 0 -0 -0
 -0 0 -0
 0 0 0
 0 0 -0
 0 -0 0
 -0 0 0
 -0 0 0
 0 -0 0
 -0 -0 -0
 -0 -0 -0
 0 0 0
 41582.517338807731 22195.135520417312 -998888.51740872359
 38753.627874705322 20358.422813177622 -999041.38600315701
 34848.636334399998 17527.681291411325 -999238.88682045368
 31081.967948916797 14838.964800825386 -999406.68218301528
 27926.867724129937 12641.701521989722 -999530.02828416729
 25423.927388221578 10957.580522581411 -999616.70421479514
 23450.674061967056 9691.5744507666732 -999678.01779908338
 21865.281428269922 8759.3644032066095 -999722.55301324185
 20541.426309426322 8096.1145754770168 -999756.22165303642
 19384.280512993653 7652.0427625880393 -999782.82437265012
 18334.096052138888 7392.5979133150959 -999804.58611572837
 17350.211465378859 7290.6715542090269 -999822.89245165582
 16397.306336263395 7327.2018166004091 -999838.70722154668
 15440.807806553874 7495.0987763239482 -999852.69162442826
 14446.888096616945 7800.7795847700363 -999865.20854672883
 13381.937073472713 8261.9516211430346 -999876.32430994755
 12206.333759674575 8903.4741792793702 -999885.86026790377
 10858.375096891901 9757.6826064349116 -999893.43598225852
 9237.2477196362361 10873.917980550154 -999898.21040059789
 7208.8622728790324 12318.389096491324 -999898.13960962975
 4617.9436358392149 14176.650121946925 -999888.84241594363
 1318.283595832823 16546.374067234559 -999862.23032655253
 -2669.9460572610978 19408.473039116459 -999808.07286315772
 -6894.5153348457525 22404.601960754619 -999725.2119804112
 -10097.890116445964 24368.782344048042 -999652.03699200484
 0 -0 0
 0 0 0
 0 -0 -0
 0 -0 0
 0 -0 -0
 -0 -0 0
 0 -0 -0
 0 -0 0
 0 0 -0
 42826.560506306785 20656.283832039462 -998868.96220347635
 39878.362832299506 18768.091355030203 -999028.26532821613
 35902.299406838458 15800.832081039222 -999230.38314637367
 32067.221006373347 12935.423888784781 -999402.00527402665
 28809.265468427882 10583.348108297612 -999528.89851468918
 26195.772043863122 8785.0959582247051 -999618.22893344192
 24142.608351247312 7460.1937770764653 -999680.68900564802
 22519.916822782194 6503.7582016366123 -999725.23949110613
 21204.158164775545 5828.884682632106 -999758.17465018993
 20094.334180633523 5371.2785987142997 -999783.6601485603
 19115.850737867451 5084.6831042772692 -999804.34598390129
 18218.090655502743 4936.7824126529886 -999821.84880721534
 17366.337308909166 4904.8927045988321 -999837.16292005742
 16533.985869106909 4974.6922881601158 -999850.92876284244
 15697.824371154536 5140.7735838142844 -999863.56607137783
 14835.234863899177 5406.9779361498076 -999875.33242706372
 13921.034075387912 5785.8428297260452 -999886.35795925406
 12921.777791318395 6298.1243667071021 -999896.67530609039
 11786.78525496108 6974.6002345163424 -999906.20892407827
 10439.331258988999 7861.0503190023519 -999914.60847951786
 8773.9619092685025 9022.4339923271018 -999920.80350259168
 6658.6388219840856 10547.074512289511 -999922.20784832595
 3949.3807492730616 12542.001847754489 -999913.54655357497
 543.34007485088227 15088.996192900959 -999886.00699052354
 -3518.5104523495843 18144.16929771248 -999829.19001432066
 -7827.3924746618886 21288.07568148592 -999742.74178952002
 -11172.787909138682 23312.639068870951 -999665.78898649022
 0 -0 0
 0 -0 0
 0 0 -0
 0 0 -0
 0 0 -0
 0 -0 0
 -0 0 -0
 44843.355747518661 18781.853107715102 -998817.45851739193
 41459.073246302811 17165.895072932064 -998992.73135088582
 37157.400226005244 14321.487519590952 -999206.79671611055
 33101.887850610903 11458.786316371868 -999386.29229987005
 29693.019747387934 9045.6715723604812 -999518.13410467235
 26966.424035675387 7171.5661409133545 -999610.61449637217
 24830.533480384096 5782.1111924115521 -999674.95307086606
 23159.077969711689 4783.8729223390546 -999720.3467307525
 21828.829199344462 4085.6370929089589 -999753.3744805922
 20735.703449223154 3613.8916921276209 -999778.46065481124
 19798.846150182839 3314.0365603358878 -999798.49112348561
 18959.489583762537 3146.9005966508544 -999815.30032869475
 18177.24325609556 3085.0537863444424 -999830.02068888897
 17424.787845859264 3109.8295197316588 -999843.34059335769
 16682.747127038154 3209.8219106966226 -999855.68108182354
 15935.666044648269 3380.483870546992 -999867.30463422718
 15168.710779588662 3624.0801663283019 -999878.38073249371
 14364.129909461208 3949.7504246177309 -999889.02946453379
 13496.598161518763 4374.059381911321 -999899.34965604905
 12527.291938011464 4922.8099793356769 -999909.412346242
 11397.859175056159 5634.3289729280423 -999919.16830474359
 10025.998271976096 6563.2371007661804 -999928.19906101725
 8303.1941062040696 7783.8101898004015 -999935.2325358697
 6097.5482802102078 9388.5325359041781 -999937.33571749029
 3268.5445660866626 11471.827293834554 -999928.85436662927
 -297.99879615996355 14087.498674768101 -999900.72186082858
 -4598.4630890858198 17143.144175735972 -999842.47096479544
 -9265.5143995487888 20163.869324775071 -999753.75398983364
 -13097.596678300706 21910.210558963205 -999674.14472642774
 0 0 0
 0 0 0
 -0 0 0
 0 -0 0
 -0 0 -0
 48052.683072236548 15894.225364136264 -998718.33529260557
 44072.788494649365 15125.034966953495 -998913.82142382755
 39091.409139630588 12764.346411972903 -999154.10883014102
 34517.238426174139 10120.194706836815 -999352.86156118347
 30762.403326730411 7777.3510344899423 -999496.4669034353
 27816.420666691854 5899.2341320617643 -999595.64113592915
 25544.477780841338 4476.6418559264421 -999663.66310504556
 23793.906578007853 3440.9226445122931 -999710.96325943724
 22427.230114854334 2712.310638620781 -999744.79879636026
 21330.970449104872 2219.1031239200024 -999770.00619193679
 20416.562633607944 1903.9330978618552 -999789.74740141584
 19618.04647824962 1723.6665368782521 -999806.06180701219
 18888.54175951186 1646.9539737318812 -999820.23910941486
 18196.269708130367 1651.5917378237039 -999833.0700739203
 17520.434606786504 1722.4296245969708 -999845.02179456665
 16847.398440205041 1850.1250085258109 -999856.36078551284
 16167.340416237346 2030.5934050988012 -999867.2380842811
 15471.177694226366 2264.9052457313869 -999877.74895983213
 14747.304899505498 2559.5115228188474 -999887.97667487001
 13977.764108912401 2926.9613616069723 -999898.02230412653
 13133.748385023448 3387.3535712426719 -999908.01101358444
 12170.748621468996 3970.5983840389435 -999918.05025535263
 11023.773259256979 4719.1050105875138 -999928.10065075557
 9602.8475927310301 5690.1565616595017 -999937.70177767321
 7789.5104058049601 6955.8232476653666 -999945.46853845229
 5436.0828088298722 8596.3262300251736 -999948.27475177066
 2371.8595150173023 10680.355961469602 -999940.15034849849
 -1567.1579594810366 13215.945680240031 -999911.4374761933
 -6435.0022741408138 16034.753373170888 -999850.72757386812
 -11875.611675855154 18536.681371965049 -999757.65127906809
 -16480.89900762722 19358.753712082715 -999676.75706831133
 0 0 0
 -0 -0 -0
 0 -0 -0
 0 0 -0
 46781.87280953602 12886.461166670375 -998822.00391012221
 41972.150183727259 11120.992712029825 -999056.88633333286
 36684.079083701072 8817.2113222286534 -999288.01410117978
 32299.268630428174 6641.8098186419174 -999456.17393073963
 28922.938338213851 4827.6295906253827 -999569.98635934421
 26381.848548847473 3412.7607295880762 -999646.1129476513
 24473.278123032389 2358.8024986250539 -999697.70166220027
 23023.137152440562 1603.8534524347372 -999733.64593263692
 21894.240308763627 1085.4492168986512 -999759.70314936142
 20982.394191941348 749.53123599965272 -999779.56437251728
 20210.546779839427 552.92488775956451 -999795.59314538317
 19523.348908814281 462.74707558007776 -999809.29417190794
 18882.495385447131 454.68392589979391 -999821.60640313523
 18262.726536711307 511.18154272481951 -999833.09182726871
 17648.316613386032 620.01433170786436 -999844.06409346766
 17029.96425697835 773.36153736473045 -999854.68055579881
 16401.979006646245 967.36396621377514 -999865.01053473318
 15759.561737593742 1202.0429442174652 -999875.08785177721
 15095.925534274544 1481.555043360602 -999884.9523954828
 14399.036428649804 1814.8128460413186 -999894.68155614287
 13647.857929424044 2216.5742936505358 -999904.40681714111
 12808.076967234632 2708.9872174074308 -999914.30360439257
 11827.263819846366 3323.427185579234 -999924.53248346597
 10629.261477977689 4102.1564731334029 -999935.09344992123
 9107.5945793431474 5098.7767149485799 -999945.52561476536
 7118.0082105609954 6375.5314428044549 -999954.34223665239
 4471.9904213323935 7994.0085175589529 -999958.04768474796
 940.7480577848853 9991.4532215531672 -999949.64165982534
 -3694.2891410895486 12325.571853705742 -999917.21282625233
 -9404.1132384088869 14750.963460790053 -999846.97415713442
 -14894.406260760828 16575.447826149866 -999751.67476303934
 -0 0 -0
 -0 -0 -0
 0 0 -0
 50164.79252749413 10365.116530578334 -998687.16721002338
 45772.910476742589 9689.9971834364151 -998904.87265858974
 39877.022285481202 7698.5004034478143 -999174.93772871478
 34607.474650156946 5660.7023085492292 -999384.95043086994
 30523.671121876087 3916.5320303141602 -999526.37097682373
 27503.146204602941 2526.583391624149 -999618.52390059934
 25295.405770184527 1468.7757896513328 -999678.94103287067
 23672.162560492019 694.6833055035687 -999719.53373674501
 22455.004630290652 151.43128402763762 -999747.84312626556
 21511.510261265692 -209.20791954614978 -999768.57880127733
 20745.576100182527 -427.59232668951739 -999784.69594061782
 20088.614227976468 -535.8024398086493 -999798.0598571616
 19492.737263340088 -558.51746429325908 -999809.8425461835
 18925.649800984127 -514.32929535609912 -999820.76155928406
 18366.738871518195 -416.99870592845718 -999831.23026604101
 17803.937333494483 -276.44344267154571 -999841.45912962023
 17231.057646172783 -99.372477009139743 -999851.52936698811
 16645.365426385626 110.39956520003908 -999861.45021285745
 16045.185796419948 351.9302624751333 -999871.20578494936
 15427.351579832077 627.37732123230319 -999880.79450548952
 14784.330791574397 942.50572779833169 -999890.26160174131
 14100.894334612338 1307.4799982064555 -999899.72260973183
 13350.17551644901 1737.9535966774267 -999909.37205877597
 12488.874354605008 2256.3498721468382 -999919.46520837827
 11451.186554813317 2893.1296493758064 -999930.24763096287
 10140.86425677129 3687.5616994169059 -999941.7806856751
 8420.8826973728683 4687.1759730640479 -999953.55847958988
 6101.3052737244288 5944.3752373661546 -999963.71858032641
 2930.9919480545059 7507.1447581800949 -999967.5255045935
 -1382.826942948117 9397.1535369098547 -999954.88963005226
 -7036.3837003987082 11555.391567043702 -999908.47692683991
 -13567.508444199157 13653.407011832125 -999814.73643449845
 -18784.170598276967 14394.163183285289 -999719.94228443177
 -0 -0 0
 0 0 -0
 49100.11531489651 7920.6619162601692 -998762.45513679192
 43911.385754418618 6693.6569595046149 -999013.00549974572
 37866.479703164427 4887.3939719665059 -999270.85572183691
 32855.882393034502 3195.0205129413698 -999454.99290168006
 29107.815979148014 1812.788794669246 -999574.63395471883
 26403.70977885697 746.11027730003082 -999651.08284309262
 24468.356678184537 -47.096258516294021 -999700.60383267328
 23070.445298983941 -615.54192123771486 -999733.65236039239
 22035.867160747846 -1003.623336414511 -999756.6770463062
 21238.881120009104 -1248.7044211493308 -999773.6497157939
 20590.367325052561 -1380.9672662642936 -999787.04217589716
 20028.04858926783 -1424.173692290871 -999798.40417906258
 19509.273969954036 -1396.7415863976676 -999808.70037327963
 19005.858637714002 -1312.8232570477028 -999818.51044704055
 18500.339969620552 -1183.2318807771055 -999828.15392612573
 17983.120197797562 -1016.1230779172062 -999837.77428232925
 17450.108920989842 -817.4289427009453 -999847.40111107402
 16900.583830950647 -591.04459247869534 -999857.00024176599
 16335.056651145125 -338.81183545447658 -999866.5166564706
 15752.975253492719 -60.299931480511134 -999875.9123684204
 15150.116877524781 247.59513389437109 -999885.19973807328
 14515.526855103839 591.25785290740669 -999894.46937877918
 13827.804730195199 981.14596747588405 -999903.90996781993
 13050.425222865657 1432.7604622791412 -999913.81308538804
 12125.58990284538 1967.7009823247242 -999924.54626454297
 10965.91001963121 2614.6777180182162 -999936.45411989663
 9443.1982260486329 3410.1939400370698 -999949.59702204727
 7374.5001394262081 4398.3517524689896 -999963.13494526164
 4509.3958938426958 5628.1877280372937 -999973.99408763158
 536.61453370820163 7143.0210874639042 -999974.34431818593
 -4825.1778626422529 8939.8403734082221 -999948.39712491748
 -11443.028139853926 10820.999523817554 -999875.9738469047
 -17503.658608575875 12063.244453421266 -999774.02450182277
 0 0 0
 -0 -0 0
 47415.092175865109 6001.7833814614833 -998857.24086587876
 41978.544842416741 4398.7824269887988 -999108.829150295
 36101.591061822088 2702.7688968430366 -999344.47022190271
 31411.398358679275 1287.1523566818873 -999505.71148541395
 27979.665681390994 189.10941865989366 -999608.47462693369
 25545.95077687726 -632.76699416749273 -999673.44868453743
 23832.217782795844 -1230.0997002541799 -999715.21557405579
 22613.790288448436 -1648.1651471856283 -999742.91697437782
 21724.411212139177 -1923.5203804047389 -999762.1467263262
 21045.423331220009 -2084.9493630181705 -999776.34656105132
 20493.623176159432 -2154.9131153892013 -999787.66133543523
 20011.463210294969 -2150.9014876167298 -999797.43696559523
 19559.931828164903 -2086.5734994105778 -999806.50891955523
 19113.557231605828 -1972.6853304216827 -999815.37317773909
 18656.87354795737 -1817.7892922032236 -999824.29291926324
 18181.799552123241 -1628.7225346631622 -999833.37083133578
 17685.51712453485 -1410.8838065559521 -999842.60355864116
 17168.552686879906 -1168.3364405144607 -999851.92693148286
 16632.846342342589 -903.74219304761277 -999861.25621138094
 16079.647234834636 -618.1604988648952 -999870.52302905754
 15507.099521684861 -310.70146206491114 -999879.70942960226
 14907.371102866304 21.949173309379898 -999888.87872854911
 14263.120832883211 386.15821515568712 -999898.20195154857
 13542.976503612354 792.11543482867626 -999907.97593606601
 12695.521526435554 1254.7769622820142 -999918.62132272904
 11641.089563045471 1794.9820822023828 -999930.62913039606
 10260.632958913175 2440.7816828672962 -999944.37945120712
 8381.5752456427308 3228.8961474301218 -999959.66089941387
 5763.5389287545222 4205.7108555891518 -999974.54648366699
 2097.1913299793632 5424.8230403203315 -999983.08639871841
 -2935.5494894762187 6929.5150334727823 -999971.68178433727
 -9361.1867470845646 8681.3478930359342 -999918.49786942441
 -15649.580223968098 10305.040068490853 -999824.43298211135
 -0 0 -0
 51422.798927077507 4872.8952989579648 -998665.0843210204
 46759.439643208461 4048.0308738875278 -998897.97689768951
 40390.061870546706 2395.5885205844725 -999181.11674397299
 34650.028117837115 921.61630417664549 -999399.08253651147
 30250.434015889263 -222.72575493037186 -999542.3260848379
 27087.900621485387 -1078.8617630597812 -999632.47331067489
 24875.367680212199 -1705.8988166936833 -999689.10466804681
 23339.117286764649 -2153.3959392979023 -999725.28651135112
 22263.632841026745 -2459.2602431801743 -999749.10987296002
 21490.869650656205 -2651.9074824568679 -999765.52746549668
 20908.554626971338 -2752.6878564811927 -999777.60279622977
 20438.233713023463 -2777.8346908333665 -999787.25848908583
 20025.80316291772 -2739.9090753198425 -999795.70918560098
 19634.679359209389 -2648.8632451187268 -999803.71218053077
 19241.047074593222 -2512.8047458658793 -999811.71623450308
 18830.546487673771 -2338.5345845579918 -999819.95467932755
 18395.856834406997 -2131.8826848122148 -999828.50905920169
 17934.766702804049 -1897.8839842011819 -999837.3578636169
 17448.431386362685 -1640.802135025461 -999846.41821157164
 16939.603751512881 -1364.0382126484183 -999855.58418428409
 16410.681240506005 -1069.9215768604454 -999864.76326003298
 15861.437296681561 -759.41022353244603 -999873.91110229294
 15286.296030885789 -431.68242133427498 -999883.06456502376
 14670.94884295166 -83.629581203249373 -999892.37234121398
 13988.002445804126 290.79239755773608 -999902.12082351244
 13191.178204267202 701.38126203308605 -999912.74663437926
 12207.408998250694 1162.7779956262907 -999924.81072972808
 10926.117640810706 1695.9434427902675 -999938.86999613047
 9185.4468857626307 2330.2023646725684 -999955.09785312274
 6757.396839210679 3105.8834728301849 -999972.34515550989
 3341.1749522655882 4076.9122934142592 -999986.10757154552
 -1402.7131732236674 5309.7658271759074 -999984.91927759291
 -7670.3618147587031 6860.0683580770619 -999947.05110408366
 -14869.794791971481 8607.1769359560531 -999852.39195995196
 -20598.284579942312 9523.4631689690614 -999742.47400099633
 51075.951913670993 2143.7299854436005 -998692.47096283967
 45656.15693183367 1496.235945017836 -998956.09343564871
 39077.149588284214 409.04114549511434 -999236.11277084844
 33515.142127663923 -623.8430549554563 -999438.01512050035
 29351.48815991409 -1453.8250158816975 -999568.09499684477
 26398.123234157138 -2082.4367892595678 -999649.33979207568
 24356.18160242181 -2543.5770959828942 -999700.10834915238
 22957.381646172562 -2870.4619033532363 -999732.32371290924
 21994.076644601839 -3089.2701783244538 -999753.3280776398
 21314.900678779806 -3219.4970791857354 -999767.62792541494
 20812.533278591 -3275.5689941308165 -999778.02991778741
 20411.978184052186 -3268.3545366823178 -999786.31167126715
 20061.436060785658 -3206.3319633253968 -999793.60781039181
 19725.768313958091 -3096.4274058645337 -999800.63322731724
 19381.984089700458 -2944.6037244137983 -999807.81553339155
 19016.125364608277 -2756.2422210748123 -999815.37800982862
 18621.025765741542 -2536.369484698243 -999823.39652024
 18194.538431937111 -2289.7409893354829 -999831.84379046981
 17737.938059138069 -2020.8183115723862 -999840.6282236994
 17254.284162636181 -1733.6402636503972 -999849.6307792844
 16746.590256124946 -1431.6195136889173 -999858.74111314432
 16215.671182113228 -1117.256127349141 -999867.89314731944
 15657.531002316362 -791.78956302563279 -999877.09984387551
 15060.103163033053 -454.76326536086628 -999886.48679892207
 14399.046951961251 -103.49758755783431 -999896.32299310144
 13632.155447826688 267.5940938575049 -999907.04204503284
 12691.754363593027 667.9068968042028 -999919.23337415175
 11474.402897817385 1111.8901234501711 -999933.54868135706
 9827.5569834837916 1620.7115908952794 -999950.3949785087
 7534.5986202310751 2224.210916620882 -999969.14087857248
 4305.4508302674021 2961.9374071220982 -999986.34491674148
 -202.1836782184667 3877.9930150325144 -999992.46011754277
 -6253.5184326077979 4988.6450734035598 -999968.00295186695
 -13580.47259454547 6154.7298328889383 -999888.83885399625
 -20071.386212068322 6838.0422143055703 -999775.16504172131
 50578.11304382611 -288.36698255242686 -998720.06654788379
 44850.792634768775 -668.05832477524984 -998993.47350125737
 38180.163078726997 -1283.1437557913916 -999270.04792967939
 32714.867070533732 -1914.1335478777073 -999462.89254044753
 28698.965494324253 -2453.3850471593933 -999585.08906514093
 25886.622530067285 -2877.3290445196139 -999660.74432857241
 23965.011781915866 -3194.4487567410806 -999707.69413235656
 22666.752216941666 -3420.0513904845011 -999737.22627119476
 21788.580266084708 -3567.9598144890397 -999756.23400544538
 21183.355498718443 -3648.8736811672793 -999768.94889303006
 20746.941565742491 -3670.776744687028 -999778.0202693789
 20406.468213538988 -3639.7565865961301 -999785.14103133185
 20111.398282633276 -3560.741178460466 -999791.40463467559
 19827.20313228849 -3438.0626862591953 -999797.51036943309
 19531.032231113422 -3275.8442322882538 -999803.88458164781
 19208.756572728511 -3078.2484235323873 -999810.7561221635
 18852.867123783468 -2849.5968704115098 -999818.20807529252
 18460.832055334631 -2594.392881999881 -999826.21830266027
 18033.618155944201 -2317.2463208750028 -999834.69583011279
 17574.16490752095 -2022.7300951654092 -999843.51640182431
 17085.655327295084 -1715.1636558510168 -999852.55842832685
 16569.456132230596 -1398.3514178405076 -999861.73931038799
 16022.594889114713 -1075.264687071359 -999871.05181561899
 15434.591369548265 -747.68406961279516 -999880.6000507198
 14783.365674623783 -415.77159620288091 -999890.63363615447
 14029.794349645312 -77.561780357227917 -999901.57458355685
 13110.318595836343 271.68909408653604 -999914.01916932431
 11926.893167512 640.31526799399398 -999928.66706367023
 10333.791483580457 1041.1722854680811 -999946.06290231796
 8122.0814366833019 1492.2293549223255 -999965.90194100514
 5007.1493177808134 2015.174940081286 -999985.43365674594
 638.85831838176114 2626.9789300790885 -999996.34541419696
 -5301.4370427917547 3312.0830181248452 -999980.46224481915
 -12699.025223708242 3959.7628354086091 -999911.52360429126
 -19526.525757793253 4321.5605852057533 -999799.99945285975
 50148.331756367545 -2075.517450568625 -998739.62425116857
 44324.29431391738 -2295.2089012252768 -999014.55892778339
 37620.22347637474 -2618.0156017552845 -999288.67940145126
 32200.046523242654 -2956.2912160200294 -999477.07194619882
 28262.587350488189 -3258.3330470047836 -999595.22278871015
 25532.34073636042 -3505.6312252909697 -999667.8499012735
 23685.988551862236 -3696.0846243251972 -999712.61515736138
 22454.88712734872 -3832.7739136280748 -999740.51027665427
 21637.445388065335 -3919.3010874284778 -999758.2007846022
 21088.519262367186 -3958.5258429713872 -999769.77571262443
 20705.476639348617 -3952.5766768364215 -999777.80550217826
 20416.322433980498 -3903.1965252592413 -999783.94607792981
 20170.839806211054 -3812.1076248415361 -999789.28032709402
 19934.382117981455 -3681.2966077238484 -999794.51312000118
 19683.659722009495 -3513.2165399154605 -999800.08544183057
 19403.891473332216 -3310.8974521623013 -999806.24470631918
 19086.808073076991 -3077.9841585033132 -999813.09241832874
 18729.110241660306 -2818.6931039222413 -999820.62161106779
 18331.088928067147 -2537.7095039779006 -999828.75094147224
 17895.192355158117 -2240.0177045522614 -999837.35897957697
 17424.381867222753 -1930.6912324662258 -999846.3198651633
 16920.147661557883 -1614.6373554996896 -999855.54034036386
 16380.0510391472 -1296.323582900465 -999864.99762374104
 15794.616955709536 -979.47596261406102 -999874.77751069469
 15143.303687776437 -666.76693071845978 -999885.1112879318
 14389.135371025421 -359.4688552729088 -999896.40641689301
 13471.397325615782 -57.07967941083345 -999909.25498067366
 12295.652372630686 243.08678586596 -999924.37606128282
 10720.427908522735 546.23395711250544 -999942.38536723808
 8540.9113494642424 859.97852315824525 -999963.15595638845
 5473.7828123500876 1192.7011126219825 -999984.30745976162
 1160.3012985385567 1547.792284460827 -999998.12901822012
 -4749.7912335386691 1909.6772694684919 -999986.89622212749
 -12199.277339650251 2222.0756361588546 -999923.11705063493
 -19161.537707609084 2387.023540317477 -999813.55141411116
 49846.032760068476 -3501.2439594074385 -998750.77687520185
 44015.271862567919 -3612.2211987592405 -999024.32788239722
 37317.724786601008 -3724.780247792467 -999296.50926482119
 31921.116336245643 -3829.3971595049766 -999483.05540876626