# OOMMF OVF 2.0
#
# Segment count: 1
#
# Begin: Segment
# Begin: Header
#
# Title: Oxs_TimeDriver::Magnetization
# Desc: Oxs vector field output
# Desc:  MIF source file: /mnt/gpfs/work/plgrid/groups/plggspinsym/MF/switching-obrazki/p-ap/Anisotropy.mif
# Desc:  Iteration: 17200, State id: 120550
# Desc:  Stage: 0, Stage iteration: 17200
# Desc:  Stage simulation time: 2.53184e-09 s
# Desc:  Total simulation time: 2.53184e-09 s
# meshunit: m
# meshtype: rectangular
# xbase: 1.0000000000000001e-09
# ybase: 1.0000000000000001e-09
# zbase: 3.4999999999999998e-10
# xnodes: 35
# ynodes: 35
# znodes: 5
# xstepsize: 2.0000000000000001e-09
# ystepsize: 2.0000000000000001e-09
# zstepsize: 6.9999999999999996e-10
# xmin: 0
# ymin: 0
# zmin: 0
# xmax: 7.0000000000000005e-08
# ymax: 7.0000000000000005e-08
# zmax: 3.4999999999999999e-09
# valuedim: 3
# valuelabels: Magnetization_x Magnetization_y Magnetization_z
# valueunits: A/m A/m A/m
#
# End: Header
#
# Begin: Data Text
 -0 0 -0
 0 0 -0
 -0 -0 0
 -0 0 0
 0 0 0
 -0 0 -0
 0 0 0
 0 -0 0
 -0 0 0
 0 0 0
 0 0 0
 -0 -0 0
 0 0 0
 7670.2925330275702 23063.615881692796 -999704.57447934058
 3773.5131475317494 20662.70177974223 -999779.38234076754
 -401.04246540071671 17285.708433402557 -999850.51055090025
 -4379.6664691885244 13382.490265562132 -999900.85882346903
 -8163.207648776066 9123.3816892159793 -999925.06016572856
 -11717.787918877722 4667.3391392896074 -999920.45153184398
 -14917.130464894661 261.23160645601268 -999888.69929444697
 -17474.425543458274 -3681.4113597936553 -999840.53311631968
 -18687.091113394508 -6431.2669766252475 -999804.6966436971
 0 0 0
 -0 0 -0
 -0 0 -0
 -0 0 0
 0 -0 0
 -0 0 0
 -0 -0 0
 0 0 0
 0 -0 0
 0 -0 -0
 0 -0 0
 -0 -0 0
 0 0 -0
 -0 -0 -0
 -0 -0 -0
 -0 -0 -0
 -0 0 -0
 0 0 -0
 0 0 -0
 -0 -0 0
 0 0 0
 0 0 -0
 0 0 0
 18963.534680527391 26776.335540531807 -999461.56114552065
 15552.086711296401 24214.432712909493 -999585.81114745536
 11688.531388657535 20545.629869005046 -999720.58862827357
 7142.7993700262887 17905.245720029758 -999814.17403078696
 2493.2976529838857 14719.923889401431 -999888.54744291585
 -1875.4924717471583 11291.360616623588 -999934.49170603871
 -5977.1758123807404 7607.4047633452756 -999953.19928588392
 -9847.2285280066171 3704.2631569521986 -999944.65373078582
 -13415.210589546832 -312.38190314062206 -999909.96321788128
 -16492.062434370346 -4269.8839068236957 -999854.8794540551
 -18713.991992439176 -7983.4332118853754 -999793.00422530377
 -19429.163283649566 -11610.2194963212 -999743.82239518967
 -18367.298733062453 -17018.956889973753 -999686.44956487638
 -16497.786230054142 -21273.116573303101 -999637.57310375571
 -14230.420639604414 -23871.377523954241 -999613.75163786567
 -0 0 -0
 0 -0 0
 -0 0 -0
 0 -0 -0
 -0 0 0
 -0 0 0
 -0 0 -0
 -0 0 0
 -0 0 -0
 -0 0 0
 0 -0 -0
 -0 0 -0
 -0 0 0
 -0 0 0
 -0 -0 0
 0 0 -0
 0 -0 -0
 -0 -0 0
 26488.224284521417 26580.712797545068 -999295.67180160806
 22863.529933029295 24106.184053739034 -999447.92305020487
 18364.592151217676 21764.648560405225 -999594.43867408601
 13863.067832271434 18465.427248008105 -999733.38613193587
 9484.5168727751552 14864.346828709695 -999844.53548191488
 4933.8082518918582 11545.107848012147 -999921.18090423092
 383.16422315349507 8336.6040927544127 -999965.17650235142
 -3971.2348447375498 5141.8375474666263 -999978.89517751487
 -8107.3193332259743 1857.5207965085044 -999965.40989662218
 -11989.613670573472 -1526.9151246933195 -999926.95617941639
 -15488.690760493251 -4948.6025915023893 -999867.79715666256
 -18367.096138098608 -8306.7926185072884 -999796.80284338119
 -20267.464170559877 -11538.389986692997 -999728.01073722553
 -20756.473664111843 -14797.440653451011 -999675.04947914882
 -19679.944310036954 -18529.924349593974 -999634.60409069073
 -17327.114539497637 -21993.736777913062 -999607.94646915398
 -13569.169514413976 -24933.287137681833 -999597.02322045714
 -8286.9573157666055 -28072.939221311532 -999571.52641615563
 -3988.1855075650446 -30180.569452011328 -999536.50638879102
 -0 0 -0
 -0 -0 -0
 0 0 -0
 -0 0 0
 -0 0 -0
 0 0 -0
 0 -0 -0
 -0 -0 -0
 -0 -0 0
 0 0 0
 0 0 0
 0 0 -0
 -0 0 0
 0 0 0
 -0 -0 -0
 29784.217004957962 23570.19898037058 -999278.41272461589
 25610.389057538829 21953.486709229874 -999430.91426752915
 20736.302024741253 18816.096768233554 -999607.90327045089
 15937.866652626719 15582.151367632558 -999751.55962134863
 11341.693863439161 12313.263008541049 -999859.86494827911
 6901.9584806967832 9112.9702664241649 -999934.65623612329
 2470.1815271367518 6090.0686650544312 -999978.4044002539
 -1929.2124766358686 3198.1556512820589 -999993.02494549961
 -6213.2677779859941 355.30081271070958 -999980.63434491144
 -10319.570338651403 -2505.179232646678 -999943.61368281057
 -14149.496030304153 -5389.8089225352232 -999885.36429026059
 -17528.741309876947 -8255.0206899905716 -999812.28131159651
 -20203.267012991753 -11038.16852188303 -999734.95829528931
 -21858.221039855205 -13708.136344551145 -999667.09717332025
 -22184.734113421844 -16326.255242505764 -999620.57349880168
 -21024.459107916718 -18999.986227558747 -999598.40568228823
 -18400.011614474945 -21571.559023787253 -999597.97289403819
 -14308.246378301888 -24028.353367685238 -999608.87967245234
 -8957.8316803731759 -26561.57234710372 -999607.04285535915
 -3053.4743665878123 -28735.03137621914 -999582.39993814426
 2852.9140029769123 -30028.132801752959 -999544.98254062189
 -0 -0 -0
 0 -0 0
 -0 0 -0
 -0 -0 -0
 0 -0 -0
 0 -0 -0
 0 0 -0
 0 -0 -0
 -0 0 -0
 0 0 -0
 -0 0 0
 -0 0 0
 -0 0 -0
 32093.423844442073 21994.49660021051 -999242.84048735828
 28120.547514144739 19806.996415222642 -999408.28378621722
 22964.613656777448 16634.526146201002 -999597.87867896468
 17918.94695533768 13342.794402422689 -999750.40944104968
 13212.129620992308 10251.214682199656 -999860.16633748193
 8750.3162228520632 7338.1709972444769 -999934.78948000143
 4412.0401606192891 4572.0385477227474 -999979.81497885229
 102.28409082799713 1938.5625623836686 -999998.11575480318
 -4184.0084910936894 -601.29886733282933 -999991.06621640304
 -8391.9182099654954 -3094.349245542513 -999959.99955573422
 -12432.137027146788 -5569.0409153760638 -999907.20957107877
 -16165.826653362348 -8016.9996500813677 -999837.1836280264
 -19392.16266970729 -10398.970767782606 -999757.87340433709
 -21856.328132978986 -12665.729441816075 -999680.88919327164
 -23279.357717901228 -14787.431941138046 -999619.62933949451
 -23413.517259232558 -16777.694769552265 -999585.07200126373
 -22112.761043227452 -18676.258986045934 -999581.02380413935
 -19355.898694627016 -20490.476141900057 -999602.66584938718
 -15201.156169944083 -22285.666440599955 -999636.07073894411
 -9812.2179442004181 -24173.958778435244 -999659.61211604101
 -3448.8416759309525 -26137.178942182938 -999652.41627679695
 3535.962414236104 -28113.50347841344 -999598.48333817243
 9809.8837429450759 -29585.351795402272 -999514.11852964445
 0 -0 -0
 -0 0 -0
 0 0 0
 0 0 -0
 0 -0 0
 -0 0 0
 -0 0 0
 0 -0 0
 -0 -0 -0
 -0 -0 -0
 0 0 0
 33969.66627378112 21407.419968236296 -999193.56690460711
 30157.86011888201 18847.696602250693 -999367.43383294204
 25047.54594762994 15354.474893357989 -999568.337104948
 19890.365079440595 11961.610181174243 -999730.61034404673
 15087.213071978929 8899.3981142800349 -999846.57658809051
 10610.625987466428 6141.3778669170315 -999924.84622297972
 6323.7338185767758 3596.1775866263179 -999973.53859857598
 2108.8755547855244 1194.0744039165882 -999997.06341079425
 -2099.1560985178721 -1107.4539637251203 -999997.18354073004
 -6298.1657111924769 -3340.3612616126775 -999974.58722475369
 -10427.53908720775 -5526.187822384848 -999930.3614136019
 -14376.241216922555 -7667.5627052993768 -999867.25727500103
 -17980.505693062125 -9742.7922921336103 -999790.86783855676
 -21025.724269868788 -11711.422522181432 -999710.33879891143
 -23262.967503868735 -13528.799769830764 -999637.83737896883
 -24442.157504339593 -15165.11590840911 -999586.21448878432
 -24358.254700221358 -16621.013157977875 -999565.11411191302
 -22896.900234374909 -17928.68993009223 -999577.05757837789
 -20052.906093091104 -19142.896286205774 -999615.64137372188
 -15909.338139841751 -20356.92995314331 -999666.18846634752
 -10606.922426340165 -21694.346133511037 -999708.38175063871
 -4306.2457504089025 -23275.700125246556 -999719.80976232362
 2783.9803750635483 -25220.794034947001 -999678.02866798977
 10095.484998604961 -27436.472038155254 -999572.56924384553
 16278.093278953822 -29127.101742848226 -999443.16277778568
 0 -0 0
 0 0 0
 0 -0 -0
 0 -0 0
 0 -0 -0
 -0 -0 0
 0 -0 -0
 0 -0 0
 0 0 -0
 35843.045373170586 21173.098187610129 -999133.11225857935
 32033.960046532458 18515.286783160838 -999315.27035219187
 26942.871574159806 14856.312031034799 -999526.57376588776
 21779.729139866002 11312.614942550623 -999698.78870675608
 16945.343254012521 8197.3362167708801 -999822.81381300394
 12464.677659873429 5480.4311215010102 -999907.29404558195
 8225.1773542725823 3053.6765566781605 -999961.51001774985
 4098.1553429421338 815.61336296951606 -999991.26991070644
 -8.3643382865074223 -1303.3320844800708 -999999.15062739688
 -4132.5877020379103 -3343.3939287273483 -999985.87161815539
 -8254.1461471486309 -5324.7468346970782 -999951.7569075661
 -12296.658669213075 -7250.8977731068635 -999898.10314204358
 -16130.775720205245 -9107.8303037453679 -999828.40802900924
 -19577.049800731995 -10864.620992611075 -999749.31814519735
 -22415.505415746156 -12479.579293386012 -999670.84843843326
 -24407.53669200655 -13911.829996237055 -999605.28867087513
 -25330.217964520041 -15135.748632973622 -999564.54977714631
 -25016.73148410871 -16153.644495536495 -999556.51311737427
 -23390.056133101516 -17001.58845592853 -999581.83820238814
 -20473.539980260121 -17748.565877688856 -999632.84388317412
 -16370.292434385998 -18496.383824886081 -999694.90211314731
 -11223.075115631162 -19374.377165894199 -999749.30662360683
 -5174.2618077828802 -20531.885174653667 -999775.80922220717
 1634.5219721854264 -22129.368099527033 -999753.77939042472
 8964.1013087612064 -24252.994266020272 -999665.66268771025
 16268.077093594682 -26673.602713479897 -999511.81513074657
 22270.841956638611 -28433.008538322229 -999347.5739821468
 0 -0 0
 0 -0 0
 0 0 -0
 0 0 -0
 0 0 -0
 0 -0 0
 -0 0 -0
 38236.498592946024 20708.528468154283 -999054.1161639021
 34149.372710550801 18274.003817309058 -999249.65905821591
 28887.61432423129 14686.972697855626 -999474.76134799281
 23636.518556791558 11119.387712139101 -999658.77888778725
 18766.613824121698 7962.0727070014582 -999792.18820902216
 14288.586459167967 5239.9350616803076 -999884.18298198318
 10093.692409648076 2858.8507096949934 -999944.97065896541
 6051.1932265617743 711.54152211957512 -999981.43821232871
 2053.3400171946118 -1286.7579212533228 -999997.06402010308
 -1964.1397246317015 -3190.4902241264149 -999992.9814390057
 -6014.3239140941178 -5027.3628481842188 -999969.27629335131
 -10056.788300526579 -6804.3358975398296 -999926.27829359088
 -13998.137565568295 -8511.3930573998223 -999865.79516098951
 -17694.290004642346 -10123.715232956183 -999792.18965298659
 -20956.521198645765 -11605.043594522567 -999713.03241601284
 -23565.662406652977 -12914.368920997771 -999638.87410939974
 -25297.288852394708 -14016.060856881717 -999581.71112459572
 -25955.98775679931 -14891.641027246678 -999552.16258436686
 -25411.042603205617 -15549.937031211388 -999556.14068052429
 -23621.566586184079 -16032.187225925496 -999592.41221848375
 -20639.432886359842 -16411.183116769214 -999652.28298585792
 -16586.118440589129 -16787.192687071267 -999721.5066391048
 -11612.589477237503 -17282.645109338264 -999783.20547189517
 -5859.6395309265081 -18037.777552283198 -999820.13542713865
 560.04505494445903 -19203.174697910083 -999815.44518528914
 7538.4830939671183 -20904.396481217809 -999753.0582500851
 14892.602064363031 -23145.995379155054 -999621.1648928111
 22150.576633172277 -25589.954758184882 -999427.08897162275
 28099.935667141861 -27168.746209573012 -999235.83444795571
 0 0 0
 0 0 0
 -0 0 0
 0 -0 0
 -0 0 -0
 41661.840606545564 19107.537707590505 -998949.04426603648
 37030.693687840845 17560.395324121455 -999159.8271753412
 31264.046935038834 14434.349638630401 -999406.92859302985
 25686.626258146724 11059.466528811301 -999608.8662229703
 20645.733431334251 7966.7323806573886 -999755.11244817195
 16105.638072453174 5265.8968856137108 -999856.42906982847
 11923.639137287268 2909.5602087623902 -999924.67780784122
 7948.4279210400355 808.49676613102758 -999968.08390396298
 4054.5463664887934 -1120.4553107779025 -999991.1525776909
 156.3031149384741 -2937.872705168209 -999995.67222728743
 -3786.0179440401967 -4678.9978545482818 -999981.88635955041
 -7763.4031558271154 -6356.5812207220379 -999949.66045627731
 -11716.952885259358 -7965.0261816263255 -999899.63064950192
 -15538.211671912744 -9483.9674624711133 -999834.29544060433
 -19072.241199421918 -10881.673190014068 -999758.89033517323
 -22126.222209852247 -12119.694552842702 -999681.72099657077
 -24486.764077935703 -13159.830776936922 -999613.5339414496
 -25946.892386677173 -13973.22826626268 -999565.65950781491
 -26339.199384839751 -14550.002039950132 -999547.16948046198
 -25566.766391444155 -14906.729831088081 -999561.96899543365
 -23621.064461996579 -15089.317011457262 -999607.10172837891
 -20578.53736555342 -15170.607327036891 -999673.13481618743
 -16575.261278434529 -15244.761655893066 -999746.39682051691
 -11768.396678624722 -15421.325008220929 -999811.8260825912
 -6298.1262125991989 -15820.784759349446 -999855.00767651713
 -262.79877501559474 -16569.110910387193 -999862.68832297309
 6284.5034225487361 -17781.445357695371 -999822.14679297991
 13310.990693542166 -19519.632571998292 -999720.86177643132
 20718.388965969953 -21691.570933066236 -999550.01080941944
 28097.113935483434 -23812.909391573037 -999321.5185988968
 34165.299049421454 -24636.243420283183 -999112.50009746163
 0 0 0
 -0 -0 -0
 0 -0 -0
 0 0 -0
 39859.467087692552 16119.83464706538 -999075.25933456898
 34348.321135978571 13854.162807974575 -999313.89213201148
 28252.106082210976 10907.252638939368 -999541.31997721305
 22799.105673800259 8017.149519016175 -999707.92039178347
 18031.428160409108 5408.9169075895788 -999822.78990648291
 13763.988588307469 3099.5183754485956 -999900.46784866601
 9800.4128738262243 1034.5152407703997 -999951.43966380646
 5981.6297787124968 -853.64811994962531 -999981.74552842602
 2194.9318245752888 -2621.4716546869467 -999994.15506324288
 -1625.3947500186036 -4306.0664613900062 -999989.40788567194
 -5498.4195967320175 -5924.1561390351499 -999967.33534449933
 -9396.5008957175396 -7474.2246355194948 -999927.91827061924
 -13245.102164022841 -8939.6921260130584 -999872.31643513206
 -16923.816398081428 -10292.352950086182 -999803.80670873367
 -20270.853752392366 -11496.368029503083 -999728.42612895591
 -23093.883999182985 -12513.544062245513 -999654.98234982765
 -25189.474876397355 -13310.281669131631 -999594.08099355001
 -26370.689834830788 -13865.645706273121 -999556.06675502856
 -26498.145704494684 -14178.94272004921 -999548.3009127496
 -25505.98425543516 -14274.600855121862 -999572.74899708433
 -23413.408100797493 -14202.631913322164 -999624.97846334369
 -20316.254265035295 -14034.655340333165 -999695.09264681127
 -16360.276545293644 -13857.454298926754 -999770.1297356881
 -11704.58927768108 -13766.774089158962 -999836.7259312988
 -6486.0805351968265 -13862.91013572154 -999882.86838102178
 -793.11601896151478 -14246.833647865735 -999898.19416678161
 5347.4652298903138 -15012.082322626751 -999873.01293711958
 11965.979158910439 -16224.334503275879 -999796.7725056397
 19104.305695042633 -17873.079567211313 -999657.73069120734
 26611.55026849356 -19760.664479755782 -999450.51980156871
 33191.150046287163 -21273.000211791721 -999222.60133595567
 -0 0 -0
 -0 -0 -0
 0 0 -0
 43755.981229845747 14588.004327117093 -998935.73578902741
 38468.8186732916 13267.364749302726 -999171.72048776993
 31727.182476508144 10706.753394596915 -999439.21842393675
 25542.722444254356 8046.3209193653247 -999641.34870952496
 20277.580866094362 5575.9547515734994 -999778.83976548922
 15739.39880411688 3345.0056878252735 -999870.53275023215
 11670.212544245383 1326.3594774065498 -999931.02107580844
 7856.3515901846959 -529.01371705853137 -999968.99846154172
 4143.9601024019466 -2267.7539369704614 -999988.84238112916
 434.80677276328316 -3923.464976137182 -999992.20865247305
 -3319.4280498351463 -5513.1571914411206 -999979.29303321301
 -7120.6959029208438 -7037.3617541365447 -999949.88435891096
 -10926.091138026226 -8482.06385548045 -999904.33298650873
 -14648.659509931056 -9821.5406807059135 -999844.46496103553
 -18159.549599974125 -11021.859292650039 -999774.34922889422
 -21294.139546794911 -12045.261459243497 -999700.6908556883
 -23864.788625215457 -12855.743700741092 -999632.53334301547
 -25681.594559884448 -13425.739856850758 -999580.0144111315
 -26579.579644744103 -13743.04559383038 -999552.22707155952
 -26446.865953815177 -13816.389157076424 -999554.73620601755
 -25245.60060488584 -13677.871180109598 -999587.70275052846
 -23017.926614929733 -13381.274975158973 -999645.49543044949
 -19873.75934901234 -12996.799503939787 -999718.01868926629
 -15963.568421302241 -12604.238758468611 -999793.12742615805
 -11444.146802083173 -12286.971538350115 -999859.02097965195
 -6446.00057629816 -12128.070587627881 -999905.67504159722
 -1047.853098188685 -12207.919974372984 -999924.9315292543
 4740.2925858662966 -12600.840758755048 -999909.37011229817
 10985.137532589144 -13366.798275103189 -999850.31652605999
 17819.165325692549 -14532.266768695728 -999735.61033388157
 25354.862760862768 -16047.175014537115 -999549.70817285066
 33277.23853638181 -17644.00726903513 -999290.40543922118
 39877.842901358679 -18155.478121956781 -999039.60695244593
 -0 -0 0
 0 0 -0
 42086.137066507166 12082.656826924878 -999040.92332137318
 36013.720919643019 10427.897220545066 -999296.88824947295
 29125.898097659672 8081.9386008609117 -999543.0777752687
 23104.044702002178 5753.3729382942101 -999716.51072603639
 18043.422272967491 3607.972154092246 -999830.6943926129
 13682.532349784165 1643.4759991435378 -999905.03913878603
 9748.7209301073053 -178.32357175317881 -999952.46419063862
 6032.4384731232312 -1896.4363785654939 -999980.00640769326
 2391.6194722133846 -3539.7067408143143 -999990.87527461431
 -1257.263199822268 -5123.0615101836529 -999986.08666821418
 -4947.3869371943074 -6646.8597961788591 -999965.67071942205
 -8666.5635244648147 -8097.9404122557798 -999929.65454463672
 -12359.755714980927 -9451.7332960866916 -999878.94326081593
 -15930.891532557785 -10675.179067590558 -999816.10671505611
 -19246.325133062532 -11730.473145157239 -999745.95521495515
 -22142.58082984421 -12579.774421888749 -999675.67510152445
 -24440.607058107085 -13190.88440394492 -999614.25424774399
 -25967.07817862117 -13543.446986774999 -999571.0509486465
 -26580.290364912475 -13634.59996832525 -999553.69332908804
 -26194.856320518938 -13482.573946757246 -999565.93064295547
 -24797.66897140388 -13126.922128294535 -999606.30226555816
 -22449.111569678993 -12625.025406702114 -999668.26803855901
 -19268.167426515967 -12045.902534845238 -999741.78364022821
 -15405.527813781919 -11463.359479355242 -999815.6135519318
 -11012.049944282966 -10950.514850948572 -999879.40321847028
 -6209.413752922168 -10576.737412160079 -999924.78507463704
 -1066.6252679029917 -10406.675555227786 -999945.2802100851
 4417.4817245945314 -10499.996984882458 -999935.1158542888
 10326.065778706472 -10909.933133747045 -999887.16649657581
 16822.041408337314 -11677.507032457235 -999790.30539026705
 24083.855681676836 -12809.347705931983 -999627.87501492398
 31985.025032530139 -14176.560788420207 -999387.80425712641
 38868.083825385685 -15188.328450064499 -999128.91397388547
 0 0 0
 -0 -0 0
 39904.949200521165 10063.92453283037 -999152.79734998546
 33550.883984940803 8159.6080406683113 -999403.70170439698
 26744.495044780804 5969.7505704936693 -999624.4765225217
 20911.55784067473 3891.6011742822175 -999773.75550120173
 16019.258672242597 1973.0057135759153 -999869.73681577435
 11782.402950653321 182.30586883412968 -999930.5684622702
 7934.5408485053076 -1518.9044046065624 -999967.36746302515
 4279.27947270397 -3158.2482301601813 -999985.85651763633
 689.03007290170649 -4749.18189524633 -999988.4851881467
 -2905.5415851277194 -6291.0470502075514 -999975.98998931411
 -6524.4472130604745 -7770.2259324249335 -999948.52626398869
 -10143.974412043459 -9161.984595150383 -999906.57454654516
 -13699.932593571781 -10432.978174421527 -999851.72141340224
 -17090.476681156022 -11544.498850050486 -999787.29745536961
 -20180.890572246641 -12456.573770240408 -999718.74316010368
 -22812.766580895939 -13132.940181470469 -999653.49174757325
 -24819.256365330828 -13546.646253887382 -999600.16651096265
 -26046.166854942679 -13685.568646743493 -999567.05748187809
 -26375.805150315784 -13556.668645414746 -999560.17009378236
 -25747.809390003065 -13187.672431220717 -999581.48022433021
 -24170.398373952634 -12625.332354243496 -999628.12726803019
 -21717.679164394693 -11930.487512973494 -999692.95580163761
 -18513.121152134536 -11171.296418372211 -999766.20591093157
 -14703.750935626995 -10416.629697432754 -999837.63358565862
 -10431.58808740643 -9731.318256769704 -999898.23652957834
 -5807.7173439657063 -9174.0171772296217 -999941.05217661953
 -891.30823186740759 -8797.4287338407485 -999960.90464443096
 4326.8550515733978 -8650.0699196729383 -999953.22621398023
 9936.7885749250618 -8778.6565310884962 -999912.09384741751
 16110.46568771696 -9229.4558773486915 -999827.62016236235
 23053.470849882742 -10040.964744437377 -999683.80826578068
 30747.218583907015 -11194.784317431 -999464.49929621781
 37758.360207724363 -12407.621441318564 -999209.86642676452
 -0 0 -0
 44950.702423206392 10009.214935061922 -998939.06218950322
 39003.992373753506 8495.1318489727419 -999202.94300696335
 31479.750457658258 6294.5505247216415 -999484.56913792097
 24630.012025479398 4212.5470101398732 -999687.75973066315
 18920.230366023985 2314.1270791783841 -999818.31834526709
 14138.256740872012 546.74822143854692 -999899.90037138795
 9975.7437265092703 -1139.8460602692787 -999949.59137351601
 6176.1051489777756 -2778.4451068848098 -999977.06772104371
 2558.2280205709776 -4383.9874179570425 -999987.11797888379
 -990.73762105627543 -5955.5994020373291 -999981.77447127935
 -4527.0171243300774 -7478.8289147418955 -999961.78588685079
 -8059.3919626850557 -8927.8810414474192 -999927.66695461608
 -11555.129861785163 -10268.094219766683 -999880.51546920894
 -14943.872448959683 -11458.920887710286 -999822.6711814045
 -18121.443959549055 -12457.609994499333 -999758.18137289875
 -20955.859385288801 -13223.679668439654 -999692.94598564121
 -23297.618613637605 -13724.053987430603 -999634.36881145881
 -24995.382262278526 -13938.393212916983 -999590.39214080304
 -25916.126976468742 -13863.724047703108 -999567.98243944813
 -25966.328527601239 -13517.19513295626 -999571.42577133223
 -25108.737861979414 -12935.908271577906 -999601.0271904323
 -23369.343552066301 -12173.469134510664 -999652.77993470151
 -20831.652421911273 -11293.948293760181 -999719.20507175953
 -17619.489790577682 -10364.852649254288 -999791.03987237217
 -13872.898694468437 -9450.9555095730993 -999859.10113463935
 -9722.7635723552939 -8610.3437272552837 -999915.6613682051
 -5268.2448453654461 -7893.1336892705385 -999954.9710046011
 -558.3914010968864 -7342.5492344946215 -999972.88721733983
 4422.9949399711486 -6997.7504581885823 -999965.73371505376
 9770.1874499270161 -6897.9800943797882 -999928.47809621412
 15662.332471983915 -7087.6840772066917 -999852.2171180892
 22343.416760366006 -7620.7270688998187 -999721.30928895075
 29996.506408616478 -8551.2425795671006 -999513.42454897682
 38235.192736253324 -9813.4245777428314 -999220.57961917436
 45111.076595322484 -10482.410003850682 -998926.979237683
 43826.051246519448 7349.98203545862 -999012.13956398761
 37152.826637662241 6161.7921917660042 -999290.598269501
 29439.68058909856 4395.5354459011796 -999556.89406604331
 22673.989591876587 2602.2402293243968 -999739.52534736576
 17060.758320621389 886.78540328538588 -999854.06141955231
 12341.259512194027 -771.36454577690824 -999923.54623260594
 8212.5539465283364 -2401.9141558498259 -999963.3917129481
 4433.9839681093008 -4020.2869574933648 -999982.08837906178
 840.59302658510512 -5625.478264988169 -999983.82356798847
 -2666.4182438171238 -7201.9806937992826 -999970.51040909952
 -6131.6517094782157 -8722.2971359580315 -999943.1605746327
 -9554.7408276825627 -10149.572538823595 -999902.84183264268
 -12896.560530066374 -11440.512826039634 -999851.38565327355
 -16083.736222953747 -12548.827185683325 -999791.89852957625
 -19013.378488506423 -13429.347466664834 -999729.03532160772
 -21560.105547139639 -14042.801274719739 -999668.92598557589
 -23587.033504828767 -14360.941508715572 -999618.63488503709
 -24961.247104779832 -14371.37199787445 -999585.11383967346
 -25572.346414541105 -14081.082099347701 -999573.79828893382
 -25350.508023018003 -13517.613812975913 -999587.22773941956
 -24279.237335899961 -12727.151341562563 -999624.19851317932
 -22398.602196880958 -11769.634165376299 -999679.8379137388
 -19797.393977212821 -10711.96314838883 -999746.6264195235
 -16596.087360235193 -9620.9864462696623 -999815.98632154905
 -12924.944408302919 -8557.9139654388837 -999879.84674189833
 -8901.8814464149618 -7575.1554102941473 -999931.68443010363
 -4613.1157756623652 -6715.7452283293178 -999966.80841359356
 -97.191340001247752 -6014.8977396194177 -999981.90561580926
 4668.7317429139111 -5503.0702673140067 -999973.95924171223
 9781.4115705667482 -5210.0198154626059 -999938.58795488509
 15420.030874587845 -5169.2108636965913 -999867.74220737477
 21833.893674716346 -5419.7351176821458 -999746.92175482854
 29245.946901851104 -5991.0773080663212 -999554.29146320152
 37459.182754331749 -6805.55392812836 -999274.98420760466
 44543.804076664324 -7393.9230867919323 -998980.06958085333
 42451.960801790905 4729.8920464278553 -999087.3130739436
 35427.616031049991 3912.0335907656859 -999364.5881336506
 27614.558903691675 2588.0969607999436 -999615.29494634899
 20876.290698914228 1087.9872909738724 -999781.4745084591
 15294.646715948516 -466.109385220555 -999882.92140823929
 10585.896724558248 -2049.7856961533444 -999941.86689483945
 6455.8387771618554 -3660.3003589850791 -999972.46179430641
 2679.4019520430588 -5289.8155615233627 -999982.41917370958
 -893.4808257435692 -6918.9972376666701 -999975.66428850626
 -4349.1884137102079 -8517.0463600870789 -999954.27119515929
 -7722.6865846425853 -10043.642793607623 -999919.73945479735
 -11006.90026193524 -11451.62529113553 -999873.84625502385
 -14159.263241117194 -12690.228276720703 -999819.22034473496
 -17106.843853419025 -13708.929770799085 -999759.68169251247
 -19751.872700775853 -14461.918642062559 -999700.31331094541
 -21979.477164511332 -14913.001878625611 -999647.19024190877
 -23668.857573852332 -15040.478420485179 -999606.70725542435
 -24707.925071198519 -14841.187930132368 -999584.54248727683
 -25009.660539831013 -14332.740251798179 -999584.45838085969
 -24526.801153585435 -13553.049586665233 -999607.29832873552
 -23260.792685698245 -12556.834914097017 -999650.56965950527
 -21261.993122471558 -11409.606208514086 -999708.83187787572
 -18620.580864840365 -10180.452604197199 -999774.79081692663
 -15450.404876859933 -8935.2989257008649 -999840.71002447663
 -11869.60836074164 -7732.0024975701435 -999899.6592332354
 -7981.7026216905433 -6617.9476569595427 -999946.24615129619
 -3859.1306167035477 -5630.0186376711681 -999976.70472917648
 470.57135280484857 -4796.3630797921942 -999988.38666446949
 5037.2778244739002 -4139.2243373985775 -999978.74610113772
 9940.4305940597751 -3678.151196901802 -999943.82794403879
 15358.517644386067 -3432.4120073348081 -999876.15957356396
 21541.75936695515 -3418.9825357441 -999762.10328347434
 28735.289991629106 -3634.6082289027167 -999580.4483542681
 36839.573105574404 -3997.7675778023763 -999313.19600403204
 44032.153980958916 -4270.2577814335773 -999020.98792481679
 41159.573858691401 2606.705582844429 -999149.18534009485
 33937.954093998676 1992.5986936093439 -999421.95534336718
 26008.125346820852 945.6584497540141 -999661.2842088266
 19213.666289628516 -346.61418716576435 -999815.34039357293
 13589.581581539418 -1787.493049026735 -999906.05965812528
 8840.1222305916617 -3332.3691271439288 -999955.37278167997
 4678.4692483579602 -4952.2859522656818 -999976.79312539008
 892.28908026782312 -6616.4685156509113 -999977.71283393039
 -2656.159374486157 -8286.5354180071263 -999962.13835731952
 -6043.2504118405204 -9915.93832330246 -999932.57437270647
 -9296.9051555693095 -11451.628570374813 -999891.20796095335
 -12406.319085585021 -12836.832382644339 -999840.63679224742
 -15328.933894119702 -14014.579873540439 -999784.28440170945
 -17996.115680535426 -14931.864080160038 -999726.55224091385
 -20319.259185168488 -15544.277598163195 -999672.69800676126
 -22197.829681007275 -15820.784282130709 -999628.41053170909
 -23530.178053378637 -15748.015208805282 -999599.08500246215
 -24226.752756444828 -15333.236802849353 -999588.89364579588
 -24223.859917656737 -14605.095604493155 -999599.86784366553
 -23494.930161319317 -13611.534531999832 -999631.2892183793
 -22056.111608421157 -12414.929560758514 -999679.64741947129
 -19964.20602251267 -11085.292487664472 -999739.23938612815
 -17307.157158866794 -9692.9854768939458 -999803.23481354211
 -14189.342478641445 -8302.4687991753271 -999864.85665406927
 -10714.905299645268 -6968.1557067533031 -999918.31446897006
 -6971.8437064508071 -5732.6991195422661 -999959.26394835592
 -3018.1642054420472 -4627.3825959870564 -999984.73889111867
 1130.2250615446201 -3673.9179265319412 -999992.61243190162
 5511.1212181395113 -2886.9214134823428 -999980.64642655523
 10228.142564917727 -2276.3805865971108 -999945.10008854815
 15461.436066193546 -1849.1577754163284 -999878.75495496602
 21465.012544897632 -1607.2214911830936 -999768.30819721706