# OOMMF OVF 2.0
#
# Segment count: 1
#
# Begin: Segment
# Begin: Header
#
# Title: Oxs_TimeDriver::Magnetization
# Desc: Oxs vector field output
# Desc:  MIF source file: /mnt/gpfs/work/plgrid/groups/plggspinsym/MF/switching-obrazki/p-ap/Anisotropy.mif
# Desc:  Iteration: 29600, State id: 207350
# Desc:  Stage: 0, Stage iteration: 29600
# Desc:  Stage simulation time: 4.35841e-09 s
# Desc:  Total simulation time: 4.35841e-09 s
# meshunit: m
# meshtype: rectangular
# xbase: 1.0000000000000001e-09
# ybase: 1.0000000000000001e-09
# zbase: 3.4999999999999998e-10
# xnodes: 35
# ynodes: 35
# znodes: 5
# xstepsize: 2.0000000000000001e-09
# ystepsize: 2.0000000000000001e-09
# zstepsize: 6.9999999999999996e-10
# xmin: 0
# ymin: 0
# zmin: 0
# xmax: 7.0000000000000005e-08
# ymax: 7.0000000000000005e-08
# zmax: 3.4999999999999999e-09
# valuedim: 3
# valuelabels: Magnetization_x Magnetization_y Magnetization_z
# valueunits: A/m A/m A/m
#
# End: Header
#
# Begin: Data Text
 -0 0 -0
 0 0 -0
 -0 -0 0
 -0 0 0
 0 0 0
 -0 0 -0
 0 0 0
 0 -0 0
 -0 0 0
 0 0 0
 0 0 0
 -0 -0 0
 0 0 0
 23481.358301578697 29174.445579471492 -999298.49271248444
 20959.172125419816 28378.720452173791 -999377.48690337955
 18509.545218040847 27608.556450429365 -999447.42950619722
 16509.265723833785 27116.69039865235 -999495.93758408225
 14732.36793776894 26941.057445856415 -999528.45720301801
 12890.310024899218 27090.50757398269 -999549.87084529514
 10694.671673574809 27580.449714914332 -999562.37563811766
 7936.9671332860034 28385.498559309828 -999565.53963422764
 5082.79313852623 29232.668223588476 -999559.71123412158
 0 0 0
 -0 0 -0
 -0 0 -0
 -0 0 0
 0 -0 0
 -0 0 0
 -0 -0 0
 0 0 0
 0 -0 0
 0 -0 -0
 0 -0 0
 -0 -0 0
 0 0 -0
 -0 -0 -0
 -0 -0 -0
 -0 -0 -0
 -0 0 -0
 0 0 -0
 0 0 -0
 -0 -0 0
 0 0 0
 0 0 -0
 0 0 0
 29371.806439751828 26585.765288974369 -999214.93887474749
 27016.999770802053 24912.500114667553 -999324.49637813889
 24924.429901415067 22886.213353289146 -999427.33304249658
 22848.454100654217 22537.115963734293 -999484.88060062588
 20430.797450866783 21396.818565861497 -999562.28353754
 18293.575352803968 20536.58077961189 -999621.72542952152
 16516.6209420427 20055.174900354381 -999662.43862234475
 14916.665048545601 19925.33771425056 -999690.1890189792
 13273.640053423524 20145.644725635386 -999708.93938101851
 11380.293719014107 20759.097823533168 -999719.73511200736
 9117.2399196555161 21832.18779279467 -999720.0765776526
 6758.0329067042485 23268.657559617412 -999706.40618463838
 5232.0386535235339 23872.965936790439 -999701.30902630545
 3073.8327853783944 25726.346103903848 -999664.29698581784
 306.19403858972129 27247.669844186075 -999628.66642232367
 -0 0 -0
 0 -0 0
 -0 0 -0
 0 -0 -0
 -0 0 0
 -0 0 0
 -0 0 -0
 -0 0 0
 -0 0 -0
 -0 0 0
 0 -0 -0
 -0 0 -0
 -0 0 0
 -0 0 0
 -0 -0 0
 0 0 -0
 0 -0 -0
 -0 -0 0
 34594.585877538128 23786.920480069886 -999118.3098322422
 31721.153872688617 21831.521093094016 -999258.3014835288
 28643.000818002638 20600.223969016723 -999377.4108296457
 25772.820188607806 18433.355405233629 -999497.86050197727
 23445.447357205845 16405.380023345548 -999590.50340852572
 21409.053672387989 15027.93830279433 -999657.84821168694
 19489.751506508328 13908.535123115114 -999713.31002290023
 17813.538588812586 13169.757593396378 -999754.58755030285
 16372.122977560171 12795.340719516329 -999784.09311464801
 15052.068345767346 12749.049371604864 -999805.42956048937
 13716.542318789734 13027.412348817899 -999821.05548658594
 12244.622215475045 13665.819765748658 -999831.64312644664
 10578.314678208417 14716.216645200859 -999835.75262450997
 8799.0557676312928 16153.077945190098 -999830.8130331327
 7021.4049279051096 17731.046762959188 -999818.13838994142
 4718.6661704118424 19793.827979496105 -999792.94784644793
 1745.6391515146693 22042.822603736193 -999755.50346852932
 -1241.471835343805 23413.562251216204 -999725.09413857898
 -4500.6697339269449 25165.879218962655 -999673.15783464082
 -0 0 -0
 -0 -0 -0
 0 0 -0
 -0 0 0
 -0 0 -0
 0 0 -0
 0 -0 -0
 -0 -0 -0
 -0 -0 0
 0 0 0
 0 0 0
 0 0 -0
 -0 0 0
 0 0 0
 -0 -0 -0
 36747.974211482542 19759.70781216686 -999129.19101512094
 33511.375790787497 18533.80938759791 -999266.47377073171
 29801.624142860557 15975.247467820409 -999428.16383509489
 26593.436646075759 13696.758002091487 -999552.49384291121
 23957.334055847808 11624.031914389059 -999645.40114332025
 21855.525897103777 9937.2057628303191 -999711.75242136081
 20116.958557946837 8718.7746807194817 -999759.61658112833
 18617.235380913811 7861.855417597053 -999795.77403395972
 17327.519329192331 7339.2975748243462 -999822.93021564826
 16201.632112703677 7115.2797958162218 -999843.4276977129
 15163.198955046999 7161.8220436425445 -999859.38296465727
 14128.175467455199 7473.8581808029103 -999872.25989215937
 13022.897285018749 8068.7292641516678 -999882.64299084921
 11799.034997684028 8970.7182190802796 -999890.14846019808
 10433.874112030811 10179.032666694944 -999893.75513850688
 8858.8635232587894 11665.602828787241 -999892.71136843332
 6834.8247285561947 13537.317182370529 -999885.00649546389
 4208.2141956558262 15775.279221184332 -999866.70686585887
 977.11059019199035 18177.779339863424 -999834.29306718882
 -2932.631331175498 20793.116416798792 -999779.49868116062
 -6316.1871460428702 22179.980015484489 -999734.04176633328
 -0 -0 -0
 0 -0 0
 -0 0 -0
 -0 -0 -0
 0 -0 -0
 0 -0 -0
 0 0 -0
 0 -0 -0
 -0 0 -0
 0 0 -0
 -0 0 0
 -0 0 0
 -0 0 -0
 37867.634824721121 17157.854621604853 -999135.45140664745
 34820.7024173963 15341.288808509267 -999275.81955176557
 30881.958459356531 12612.12966348937 -999443.46454767813
 27337.477588425903 9977.7926633387488 -999576.4632946644
 24492.143226510816 7835.1747307055775 -999669.31780319812
 22261.693736453817 6136.8443690550439 -999733.34251347964
 20511.425038700771 4852.9793750939589 -999777.84033957589
 19102.016613901458 3951.041781699279 -999809.73301429767
 17931.332162527528 3366.3094525449173 -999833.55379160331
 16938.603758079073 3052.6032302708882 -999851.87168712413
 16070.662361635519 2973.7144632388213 -999866.43649717013
 15270.855715241063 3106.1531156257679 -999878.56901653146
 14482.672684037689 3441.9188447493671 -999889.19655459479
 13654.171657733068 3986.2816464643365 -999898.83145995135
 12738.29005271299 4750.98653544852 -999907.5777758027
 11682.353758477162 5747.5875104684364 -999915.240332135
 10398.539623814475 6997.5065642183326 -999921.44955270155
 8739.9094894228456 8566.1367901016511 -999925.11483741133
 6556.191743361619 10506.442854704126 -999923.31256370095
 3706.3691683356196 12852.08045285357 -999910.53942621371
 83.090749456135853 15660.378391659222 -999877.36530264432
 -3944.3000443595301 18556.337894624408 -999820.03621706879
 -7088.2574345816047 20485.193732943862 -999765.02911647432
 0 -0 -0
 -0 0 -0
 0 0 0
 0 0 -0
 0 -0 0
 -0 0 0
 -0 0 0
 0 -0 0
 -0 -0 -0
 -0 -0 -0
 0 0 0
 38758.156668359843 15445.141428158762 -999129.24734387337
 35731.818781564412 13273.591295148897 -999273.26037510426
 31757.479408351086 10208.549323507148 -999443.46914787393
 28055.707678596285 7375.6301220367486 -999579.15011616587
 25027.571847564614 5071.9639286005813 -999673.8947423416
 22672.128992210506 3312.6068479036094 -999737.46613940189
 20859.434761795437 2006.8902724565512 -999780.40407524141
 19452.997571677908 1076.9057186576588 -999810.1925663437
 18337.729243029487 462.00926695528585 -999831.74296160776
 17428.613391688206 106.89291573447079 -999848.10446844774
 16665.857024505174 -31.877866256075201 -999861.11445212259
 16001.211618540214 13.212809907464456 -999871.97233053809
 15390.591495466033 220.78976584311619 -999881.5334554885
 14792.336307823054 580.39026137947474 -999890.41896284872
 14166.142493221265 1090.9143800266088 -999899.06006190297
 13469.551377529584 1758.6707576023837 -999907.73487500078
 12649.802843411591 2597.8152363987283 -999916.6134453516
 11631.389182669545 3637.1907166315486 -999925.73805726785
 10308.445053011061 4930.0516813640743 -999934.71314431727
 8554.2275403132171 6545.1035479458087 -999941.9917228875
 6225.6602668671148 8568.32490673549 -999943.910908274
 3190.6680123425431 11097.876070623708 -999933.32616947824
 -535.92641783346244 14112.481984396967 -999900.27034455515
 -4570.161618505289 17277.796955514546 -999840.28292280016
 -7735.6757951323143 19458.145661204286 -999780.74590753147
 0 -0 0
 0 0 0
 0 -0 -0
 0 -0 0
 0 -0 -0
 -0 -0 0
 0 -0 -0
 0 -0 0
 0 0 -0
 39941.088655950523 14041.196991922558 -999103.37514393951
 36721.104255600461 11781.104794339282 -999256.10634715366
 32589.343881326102 8560.8358281367218 -999432.1621577465
 28743.690649346154 5558.5004359199247 -999571.35979416617
 25569.249211819097 3125.3494380311631 -999668.16778650798
 23088.780777803819 1270.3238673755397 -999732.61149142589
 21195.566012559069 -89.323766977670175 -999775.34476634907
 19755.398430824189 -1050.718572515545 -999804.29096064635
 18648.934415579843 -1692.8303351073791 -999824.6604133246
 17781.755177898507 -2075.8092198469799 -999839.73725736456
 17083.660699538472 -2247.5638914012875 -999851.53747626825
 16502.895679039306 -2245.5828873318692 -999861.29627648997
 15998.556741963263 -2098.247339804831 -999869.81329584878
 15535.385753511933 -1825.4536753941686 -999877.65226970077
 15080.874428874964 -1439.1663689071215 -999885.24142854661
 14602.750706782548 -944.01576823015955 -999892.92852086166
 14065.347459014345 -337.27185750608953 -999901.02122587664
 13424.223928907291 392.95248303861609 -999909.81383335392
 12619.745869559343 1271.9343363023702 -999919.55886322772
 11572.324061650692 2343.0411002043766 -999930.293307596
 10181.405919235536 3668.6993758108956 -999941.43809445063
 8325.0558432897178 5332.8226207521611 -999951.1260297182
 5869.3802662979388 7435.9051545391058 -999955.12783815549
 2707.8320784792245 10054.242876567954 -999945.78845336102
 -1156.4346820532683 13156.873446710106 -999912.77586594189
 -5387.1815317308547 16375.014852684008 -999851.40754199983
 -8827.2550150977931 18548.512339859833 -999788.99386764434
 0 -0 0
 0 -0 0
 0 0 -0
 0 0 -0
 0 0 -0
 0 -0 0
 -0 0 -0
 42001.951097408099 12437.58429387292 -999040.11060664814
 38274.556905699603 10401.235533810299 -999213.12671173539
 33734.407487430057 7262.1524251829578 -999404.44810578343
 29585.500850124336 4234.4873475992763 -999553.28385051584
 26189.824029479139 1729.6341970786755 -999655.49139833648
 23547.579914912581 -200.39209072430228 -999722.69721316244
 21543.952918387306 -1623.9662670651903 -999766.58317139884
 20041.211444333156 -2632.8635940708518 -999795.68806488602
 18913.500790986003 -3310.8758540314698 -999815.64180048148
 18058.469698267734 -3724.6037248914718 -999829.99504878279
 17397.630740020115 -3925.1538536122343 -999840.94515670824
 16872.474606224125 -3952.5090833338918 -999849.83736189501
 16439.138563994802 -3838.2691121168859 -999857.50105377333
 16063.186410137128 -3607.168534897944 -999864.47200483805
 15715.687060593078 -3277.8059335255443 -999871.12828027783
 15370.440051587144 -2862.9727377238837 -999877.76900965406
 15001.46716357118 -2369.6249739453137 -999884.66377898981
 14580.050282894663 -1798.1798926418614 -999892.08851896704
 14071.029171738825 -1140.7711918092295 -999900.3474242501
 13428.604516613084 -378.45863618090357 -999909.76060332416
 12592.252140673991 521.80872675628939 -999920.57829693577
 11482.997974083904 1609.4969135391734 -999932.77287886315
 9999.5856324904162 2952.5534093818142 -999945.64388047787
 8017.1724852729621 4635.779628033094 -999957.11632678611
 5394.1787116134765 6747.447609214707 -999962.68669725268
 1997.2295779251431 9346.1233131883837 -999954.32948361582
 -2213.3306438672957 12368.979550596136 -999921.05163974734
 -6932.2866071239405 15404.983221623053 -999857.30476620432
 -10984.714696637166 17267.396094528318 -999790.56460598193
 0 0 0
 0 0 0
 -0 0 0
 0 -0 0
 -0 0 -0
 45311.493496037772 9975.3256028111009 -998923.10086226161
 40923.24183544323 8726.0746927659584 -999124.18842611066
 35629.537454398298 6008.2695147658906 -999347.00517799309
 30887.212218218341 3148.0054636414325 -999517.91889039555
 27073.942519167813 677.72864326822764 -999633.20389048429
 24150.091261901976 -1277.9104372387683 -999707.52724832285
 21962.527624430553 -2747.4437996091538 -999755.0194587243
 20347.690935929215 -3804.7114350649681 -999785.72486531897
 19162.510192903905 -4526.4078085124529 -999806.13612612814
 18291.441685333528 -4978.3022274486393 -999820.30368861998
 17645.279893276947 -5212.6983205106717 -999830.72160926671
 17156.876628891361 -5270.5062644404552 -999838.91870043636
 16776.107739446168 -5184.3064734937116 -999845.83070366585
 16465.100133529486 -4980.5968523244683 -999852.03611963894
 16194.20763496994 -4681.0748315965593 -999857.90749360807
 15938.954893927063 -4303.1865353842986 -999863.70686335617
 15677.69245200807 -3860.1887117168008 -999869.64595515665
 15389.470741773819 -3360.7796128069572 -999875.92697828391
 15051.692348980934 -2808.2215659750314 -999882.77335349063
 14637.317833087493 -2198.8725228160843 -999890.45094264287
 14111.552122647247 -1520.2303816839537 -999899.27142501529
 13427.986690138423 -748.80477955635888 -999909.56014274212
 12523.968075061006 151.85771665603031 -999921.56050506723
 11314.866289222904 1232.8321871556361 -999935.22486491874
 9687.6824573361191 2559.7876642379733 -999949.79688768357
 7495.6900427703149 4208.3258178959331 -999963.0516297057
 4559.2194753856611 6249.4829895064931 -999970.07829241524
 691.15527923727939 8708.8234195314235 -999961.83862136828
 -4201.1760189373072 11460.399241942107 -999925.50190965389
 -9804.1299164191205 13975.997814183151 -999854.26464144269
 -14684.953530294082 14948.912752811217 -999780.4169653065
 0 0 0
 -0 -0 -0
 0 -0 -0
 0 0 -0
 43562.81964635152 6865.8616326364818 -999027.09707419889
 38453.030113420653 4761.0355835369955 -999249.06655711657
 32965.715133167068 2193.8729978797064 -999454.07525660144
 28474.391510301961 -154.52422054569141 -999594.51036426949
 25066.114338284271 -2080.5311827028931 -999683.63060619228
 22557.662103248029 -3566.5664473880047 -999739.18172902078
 20740.908689933305 -4660.1517031511894 -999774.02331367822
 19438.379538846992 -5424.4100823507742 -999796.34184976004
 18510.462346992303 -5918.7426766890276 -999811.1478018373
 17850.808425400031 -6192.9603560204841 -999821.48200595716
 17379.653830989242 -6287.0654469689644 -999829.19563332456
 17037.504987203505 -6233.1568057617687 -999835.42204707151
 16779.808597878899 -6057.6369027312512 -999840.85886633629
 16572.689348209555 -5782.8655440208749 -999845.94034974603
 16389.693724879991 -5428.0888513900136 -999850.94578693365
 16209.36456226645 -5009.7583889461321 -999856.06905262708
 16013.347510811551 -4541.381888774381 -999861.46468000161
 15784.648474066666 -4032.9933852816662 -999867.28111130069
 15505.722665661177 -3490.2602069216618 -999873.68734670861
 15156.145545017645 -2913.2629656572781 -999880.89498255309
 14709.682041019278 -2295.0333862880484 -999889.17289668042
 14130.510460051331 -1619.9984914309889 -999898.84702355065
 13368.252492791393 -862.45100577254664 -999910.26897594763
 12351.344201209842 14.812073782191483 -999923.71912912722
 10978.468127610553 1061.1425934896431 -999939.17175694602
 9108.3265264400507 2336.7112509075528 -999955.78810686292
 6550.2798809154683 3906.3684201062088 -999970.91663670295
 3066.4446258134008 5821.1687843465425 -999978.35522142227
 -1576.9153708119406 8070.2971020855093 -999966.1912497828
 -7363.0426142940132 10463.618065719997 -999918.14580016222
 -12974.138093079546 12364.708450489577 -999839.37996343989
 -0 0 -0
 -0 -0 -0
 0 0 -0
 47017.497513121583 4762.5632465907247 -998882.71229355328
 42221.647667132434 3721.0297371320958 -999101.33940755378
 36062.184664548782 1459.8122653373975 -999348.48165460792
 30658.120963670994 -773.89414930879707 -999529.62972931552
 26510.049202711871 -2657.3239838804698 -999645.01495306566
 23481.837855672347 -4142.5350975880838 -999715.68092827522
 21323.264512945989 -5259.6053763341697 -999758.79838178796
 19808.16721500281 -6059.8904031431712 -999785.4341006797
 18759.015229567547 -6595.5092525083701 -999802.27975601074
 18042.502713461261 -6912.0746165440487 -999813.32823699166
 17559.854872001015 -7047.195630671129 -999820.9782409136
 17237.919635291481 -7031.422771396773 -999826.69159232639
 17022.16766371121 -6889.985125744216 -999831.37273892132
 16871.476906196101 -6644.4610771064345 -999835.58868645912
 16754.360249796555 -6313.9712897104291 -999839.69974149985
 16646.280256128761 -5915.8059447061214 -999843.94011948642
 16527.723827075435 -5465.5426678225904 -999848.46961349202
 16382.687591118964 -4976.7626870932772 -999853.40894575545
 16197.250743706249 -4460.44621272925 -999858.86678467214
 15957.936882207296 -3924.1173672789705 -999864.96365926892
 15649.631283634075 -3370.7971222462261 -999871.85517317522
 15252.812029425148 -2797.8424354925655 -999879.75467198133
 14739.825953640158 -2195.7353622319793 -999888.95197270554
 14069.812921613295 -1546.8638480860614 -999899.81877015368
 13181.78600017694 -824.32198302264487 -999912.77670160495
 11985.313396860342 9.1084838684322751 -999928.17351038486
 10348.53172081812 1001.3314849646993 -999945.95115260116
 8084.593748437077 2209.4675946148104 -999964.87818166451
 4942.9899332094283 3693.5048533175946 -999980.96225499164
 630.58406992795983 5497.6809030383429 -999984.6888169935
 -5048.0475345979876 7596.5086770326789 -999958.40427090169
 -11642.972749220933 9696.5823109493085 -999885.20214925078
 -17019.335544470479 10546.35083359274 -999799.53825840494
 -0 -0 0
 0 0 -0
 45543.904388234958 2328.760804536967 -998959.62363160134
 40035.388142967473 830.31601246767866 -999197.91746758623
 33804.247986717419 -1179.6439899439388 -999427.77690942236
 28703.600960877378 -3016.7063257955019 -999583.41461571993
 24921.874192053117 -4503.0571170015692 -999679.25989457057
 22233.90877389313 -5639.5337257142191 -999736.88986652403
 20369.692323941006 -6469.8471297255228 -999771.58226904308
 19103.521707604359 -7042.1647670224911 -999792.71020235051
 18264.027914573882 -7399.1379438152617 -999805.82016810833
 17724.923619906618 -7576.0616283294667 -999814.1979252306
 17393.516167954473 -7601.610225827817 -999819.8243270081
 17201.217794335222 -7499.3666118552637 -999823.92330190458
 17096.563535525645 -7289.4229492357517 -999827.27099651739
 17040.336042181381 -6989.6942582434012 -999830.37117390346
 17002.257724832798 -6616.7884898656466 -999833.55681950308
 16958.781171104056 -6186.4019613702185 -999837.05080976221
 16891.560872238515 -5713.2950024634411 -999841.00407590531
 16786.252984652445 -5210.9240412883801 -999845.52205896843
 16631.316672946534 -4690.8168193734646 -999850.68662440369
 16416.554776819947 -4161.762524527976 -999856.57794603182
 16131.149374012262 -3628.8906570609784 -999863.29924268788
 15760.974734958869 -3092.6941017012509 -999871.00513946172
 15284.907429233645 -2548.0331900796191 -999879.93235775142
 14669.784571009341 -1983.1097835641942 -999890.42634492053
 13863.508832408626 -1378.370513386169 -999902.94689913862
 12785.72109847203 -705.30588639769405 -999918.01057866681
 11315.543059908638 74.776932830976435 -999935.97439719597
 9276.8844124026054 1011.553764449623 -999956.45713930007
 6425.642453309616 2164.3389222498809 -999977.01311384735
 2456.4294452771378 3592.4446438189061 -999990.53010309138
 -2909.5466988619478 5314.399285298925 -999981.64568068122
 -9552.3558596088624 7161.4677785634558 -999928.73039871594
 -15676.061548252861 8452.9714369294052 -999841.39160579955
 0 0 0
 -0 -0 0
 43473.498673248156 450.43495757936347 -999054.47900575271
 37819.885255294779 -1330.7046345024346 -999283.68619949569
 31831.410189525679 -3160.5327222575602 -999488.25523777783
 27089.777183383467 -4669.0082103546047 -999622.10076332651
 23650.805459486688 -5829.7061234167249 -999703.28294331022
 21257.647760807111 -6686.0907307589869 -999751.67346817558
 19640.881116403893 -7288.2992851168819 -999780.53415862296
 18582.678265977698 -7679.402701865959 -999797.83498595655
 17919.738098829424 -7893.929368644468 -999808.26605184283
 17532.276096520829 -7959.2332073799198 -999814.61776752677
 17332.272365766155 -7897.3410131316869 -999818.59571602347
 17254.157372518192 -7726.6818458060361 -999821.28025013465
 17248.184038109186 -7463.5103813402147 -999823.38248321402
 17275.97447438235 -7122.9476449390831 -999825.38691653963
 17307.651820114945 -6719.6062090519627 -999827.6311849301
 17320.023877543197 -6267.817521285534 -999830.35122784774
 17295.385027423748 -5781.5060431760994 -999833.70809581433
 17220.5569416367 -5273.7806807146881 -999837.80667463841
 17085.865335547027 -4756.3146321590384 -999842.71296882257
 16883.784319888098 -4238.5902187142765 -999848.47461002681
 16607.038959155412 -3727.0726182762787 -999855.14710217284
 16245.946892211663 -3224.3643304573202 -999862.826933895
 15784.773048190789 -2728.3562422362893 -999871.69027432345
 15196.766560584241 -2231.3490595184662 -999882.03272559971
 14437.451137765189 -1719.0663994502943 -999894.29682109843
 13435.586574697718 -1169.444756592816 -999909.05457064195
 12081.277450169338 -551.08937541137743 -999926.86684360681
 10211.353760186143 178.57309604714447 -999947.84682303993
 7595.0253800734536 1074.7920306584026 -999970.57977300871
 3932.6230868101907 2203.7300142069121 -999989.83897321741
 -1085.7521478158167 3626.7783467695831 -999992.83378487092
 -7484.44941663181 5334.1964468041397 -999957.76379064959
 -13748.271675033366 6982.9267203684922 -999881.1048121507
 -0 0 -0
 47804.535543408121 -435.04168173060651 -998856.6148953581
 42690.594161510671 -1446.3359724566117 -999087.29412518907
 36078.182877351399 -3183.6598843626666 -999343.89928092796
 30240.523442336449 -4707.4828908898216 -999531.56545792276
 25807.410066207754 -5884.1087148825281 -999649.6160406936
 22658.12710013811 -6754.0084902023873 -999720.4572507398
 20510.425864626093 -7372.3102470867343 -999762.45752302185
 19099.200348945 -7784.7325996861191 -999787.28661869979
 18215.120168018479 -8026.316176681994 -999801.87419603101
 17702.118910659436 -8123.7220663100406 -999810.30207027891
 17445.550435599838 -8097.6755260286936 -999815.0231023106
 17360.641386571631 -7964.9904680662403 -999817.56688782515
 17383.593501583102 -7740.1427161214706 -999818.93404141231
 17465.388721248593 -7436.4349261015768 -999819.81358263025
 17567.757502052089 -7066.7795470418405 -999820.70118755929
 17660.688209572894 -6644.1240274955026 -999821.96200517216
 17720.941623354196 -6181.5446365420976 -999823.86285479704
 17731.108657285411 -5692.0536783483039 -999826.5891196864
 17678.844451677309 -5188.1733768480099 -999830.25625146262
 17555.962401001707 -4681.3421616874239 -999834.92298465944
 17357.149827577006 -4181.2179920771032 -999840.61068050528
 17078.091276043284 -3694.9405124883019 -999847.33145264548
 16712.827160608213 -3226.3947645380463 -999855.12539823633
 16250.131253295334 -2775.4903377575165 -999864.10571018874
 15668.646767055732 -2337.4267010612766 -999874.50709821901
 14930.37333858334 -1901.8645874959477 -999886.72701614618
 13971.992086425123 -1451.8748174020284 -999901.3328807255
 12693.45919746077 -962.49662959288037 -999918.97156411654
 10943.800878497237 -398.75344572148879 -999940.03531112859
 8506.0993095091744 286.86123122345066 -999963.7813366896
 5090.7424946349774 1156.7131964586683 -999986.37308487087
 368.43492377896183 2286.5453997536142 -999997.31797932438
 -5854.255308973713 3740.6252852879024 -999975.86741743539
 -13023.226736213221 5404.0502077289602 -999900.59096228634
 -18854.70477656354 6282.6551758660971 -999802.49467168737
 47225.125497475696 -3045.6152997720765 -998879.62825817685
 41463.575878221411 -3807.0108955742949 -999132.76322190138
 34678.275781794997 -4926.5201230642997 -999386.38503247523
 29024.979858405721 -5955.6531893347292 -999560.94398456148
 24838.138873575619 -6766.0764230625664 -999668.58861681458
 21916.317017344329 -7359.2117294961699 -999732.72280700889
 19964.022493491273 -7764.7719948685017 -999770.54673647345
 18719.66374183018 -8012.3360319369085 -999792.6668368316
 17979.984051594147 -8125.8390132806471 -999805.32650803321
 17593.92580174499 -8123.9225579832782 -999812.210196072
 17450.167726385826 -8021.4294699027832 -999815.55714820733
 17465.774315178936 -7830.8494032271865 -999816.79548064957
 17577.667909625117 -7563.4683257796059 -999816.89300478611
 17736.819760600611 -7230.1973480714069 -999816.54790820892
 17904.566317784924 -6842.1000321064885 -999816.28921123454
 18050.42995252831 -6410.6366642734729 -999816.52602669422
 18150.885174601626 -5947.6503012940657 -999817.56877105928
 18188.618496129424 -5465.1254962753655 -999819.63701485284
 18151.896155050839 -4974.7637866412015 -999822.86450713035
 18033.745398629169 -4487.4280012610061 -999827.30859725503
 17830.699871355988 -4012.5130097087481 -999832.96899104328
 17540.931924255914 -3557.2971594532214 -999839.81784291205
 17161.597475262439 -3126.3143110298479 -999847.84128932608
 16685.232029257892 -2720.7629200847218 -999857.09002900124
 16094.945418628999 -2337.9309735831744 -999867.7346583067
 15358.075255839136 -1970.5787133941599 -999880.11598589667
 14417.781760711528 -1606.1787558451022 -999894.76834260172
 13182.028338468122 -1225.9022571413054 -999912.36180604342
 11509.674456775627 -803.28831875219328 -999933.43884569441
 9195.0534480321039 -302.83181674577531 -999957.67874694499
 5957.8765070470099 320.18610651965736 -999982.20043577976
 1462.2879231729819 1113.2762571172889 -999998.31116357667
 -4560.8600670933656 2094.0646344203874 -999987.40664508159
 -11872.23659327311 3133.4410498559428 -999924.6129311251
 -18393.072814767784 3751.7614620934619 -999823.79405491357
 46496.007336636183 -5182.2230038204807 -998905.03345738049
 40527.183556695949 -5646.7261039039786 -999162.48021894286
 33711.524274059913 -6277.9712868058805 -999411.88716546749
 28181.009630387973 -6876.7888299201004 -999579.18169177591
 24161.231035311375 -7356.0276571130307 -999681.01100899477
 21403.067392143967 -7698.5622217444015 -999741.28695674322
 19598.309484951573 -7913.1339848450152 -999776.61933847493
 18485.015345037758 -8014.0695302601143 -999797.01884795493
 17862.542887326337 -8014.7653659094085 -999808.32817982056
 17582.268832766011 -7926.5216689824174 -999813.99974041351
 17534.354375186358 -7758.9990075419109 -999816.15527608211
 17636.408525425824 -7520.979773251167 -999816.17908372253
 17825.203221522483 -7221.0377621515645 -999815.04226719285
 18051.1390744743 -6868.0211832324485 -999813.47593595716
 18274.825783445118 -6471.333092578222 -999812.0586343162
 18465.125376357621 -6041.0132576225142 -999811.25483946048
 18598.107111514455 -5587.6316039922112 -999811.42661250196
 18656.441686199196 -5122.0130952258205 -999812.83356709406
 18628.865410352217 -4654.8253989316872 -999815.63199123298
 18509.403545230711 -4196.0706116046194 -999819.88126453175
 18296.13130085904 -3754.5306781993017 -999825.5623251528
 17989.284392199512 -3337.2132102114979 -999832.61031787004
 17588.586469711016 -2948.8384827684508 -999840.96034199372
 17089.626343324464 -2591.3850640272658 -999850.60353779653
 16479.085865893641 -2263.6911493395846 -999861.64814508474
 15728.468575185023 -1961.0738077341857 -999874.37684231123
 14785.850724272337 -1674.9159688306845 -999889.28050802567
 13565.017271318724 -1392.173781202385 -999907.02175681898
 11931.545456353475 -1094.8731462899414 -999928.21716152015
 9686.5435629623371 -760.03244839961053 -999952.79549810744
 6553.1187864096528 -361.57506498697302 -999978.46271689457
 2184.5723150142039 121.33614427524772 -999997.60645780573
 -3741.4062827694752 679.51723000877553 -999992.77004154446
 -11119.17733152698 1222.014362885833 -999937.43333088921
 -17919.800590497478 1544.2043630324849 -999838.2350058842
 45877.944777144199 -6626.6420048795189 -998925.07316553267
 39884.637810659704 -6904.0323529790621 -999180.43916200707
 33098.583255462079 -7219.0435416169803 -999426.01987181895
 27654.482723879908 -7495.0756824967311 -999589.44243413676
 23744.150165801428 -7698.1047929470669 -999688.42871941894
 21097.228913430972 -7819.5936600134237 -999746.84840071725
 19397.902351271619 -7861.7298758058041 -999780.93329875555
 18382.897232307161 -7829.6192257689027 -999800.36314862664
 17852.013247754294 -7728.5963767174362 -999810.76930639602
 17657.055702102651 -7563.7741867585391 -999815.49183036003
 17688.122412663462 -7340.2825169955313 -999816.60847281653
 17862.284479829603 -7063.6112371241834 -999815.50507553772
 18115.458456337441 -6739.8874468475042 -999813.18459106167
 18397.060013625003 -6376.0471445511857 -999810.42913427623
 18666.752531790535 -5979.8916169412378 -999807.87816768419
 18892.641121562665 -5560.0232782735566 -999806.05831961054
 19050.340106853655 -5125.6593681841368 -999805.38714184507
 19122.454841643299 -4686.3324076041636 -999806.16621892992
 19098.089246215739 -4251.4962752078218 -999808.57556162507
 18972.08967004473 -3830.0718923302729 -999812.67763659172
 18743.787175597776 -3429.9709190742533 -999818.43638823275
 18415.082208027765 -3057.6432470610002 -999825.75260144495
 17987.724676606602 -2717.6824243966989 -999834.51428883895
 17459.663896475035 -2412.5175358573365 -999844.65788229415
 16820.252217205489 -2142.1933384976214 -999856.23472729826
 16043.994198234661 -1904.2308785668649 -999869.47355888796
 15082.322310334805 -1693.5376283312989 -999884.82110892585
 13852.749998047271 -1502.3570107540836 -999902.917407937
 12224.767022360871 -1320.3024242620825 -999924.40307893162
 10002.78567480158 -1134.7484779522435 -999949.32702844287
 6910.1495599614991 -932.38741180173929 -999975.68994789745
 2591.4259957115287 -703.86899806853501 -999996.39453337144
 -3303.2464938142871 -454.53203318075822 -999994.44096616446
 -10714.289959205616 -221.06575231416818 -999942.57591153868
 -17611.849175463583 -75.74877032522491 -999844.89648682228
 45442.702847188368 -7702.8450016868619 -998937.24874829943
 39500.082918111737 -7838.8975716062596 -999188.81855949759