# OOMMF OVF 2.0
#
# Segment count: 1
#
# Begin: Segment
# Begin: Header
#
# Title: Oxs_TimeDriver::Magnetization
# Desc: Oxs vector field output
# Desc:  MIF source file: /mnt/gpfs/work/plgrid/groups/plggspinsym/MF/switching-obrazki/p-ap/Anisotropy.mif
# Desc:  Iteration: 600, State id: 4273
# Desc:  Stage: 0, Stage iteration: 600
# Desc:  Stage simulation time: 8.86404e-11 s
# Desc:  Total simulation time: 8.86404e-11 s
# meshunit: m
# meshtype: rectangular
# xbase: 1.0000000000000001e-09
# ybase: 1.0000000000000001e-09
# zbase: 3.4999999999999998e-10
# xnodes: 35
# ynodes: 35
# znodes: 5
# xstepsize: 2.0000000000000001e-09
# ystepsize: 2.0000000000000001e-09
# zstepsize: 6.9999999999999996e-10
# xmin: 0
# ymin: 0
# zmin: 0
# xmax: 7.0000000000000005e-08
# ymax: 7.0000000000000005e-08
# zmax: 3.4999999999999999e-09
# valuedim: 3
# valuelabels: Magnetization_x Magnetization_y Magnetization_z
# valueunits: A/m A/m A/m
#
# End: Header
#
# Begin: Data Text
 -0 0 -0
 0 0 -0
 -0 -0 0
 -0 0 0
 0 0 0
 -0 0 -0
 0 0 0
 0 -0 0
 -0 0 0
 0 0 0
 0 0 0
 -0 -0 0
 0 0 0
 1272.0275394850401 -35095.17959765064 -999383.16491471266
 4090.2214611064219 -34820.894493676067 -999385.19870721479
 6801.1492383769082 -34582.305935007811 -999378.7112427674
 8884.7284040028317 -34515.152680169056 -999364.68110327562
 10562.047472778555 -34620.530632239621 -999344.71630760364
 12157.586453088745 -34874.004269410972 -999317.76573713159
 14004.414522653051 -35253.717003995982 -999280.26689777058
 16382.082746636148 -35719.549405866572 -999227.57225525181
 18972.077680816932 -36119.558520460261 -999167.3722458916
 0 0 0
 -0 0 -0
 -0 0 -0
 -0 0 0
 0 -0 0
 -0 0 0
 -0 -0 0
 0 0 0
 0 -0 0
 0 -0 -0
 0 -0 0
 -0 -0 0
 0 0 -0
 -0 -0 -0
 -0 -0 -0
 -0 -0 -0
 -0 0 -0
 0 0 -0
 0 0 -0
 -0 -0 0
 0 0 0
 0 0 -0
 0 0 0
 -3581.9645971923978 -32661.481887263526 -999460.05279378348
 -1068.549140844447 -31886.863910739376 -999490.9134717891
 800.85788897741099 -30649.845502519038 -999529.86228392087
 2371.3338591276402 -30166.957230731146 -999542.06087946484
 4870.2399107388692 -29093.097488823252 -999564.84153941588
 7215.1981899284228 -28450.615531956668 -999569.15888343251
 9084.180858472726 -28205.194922547587 -999560.87590376975
 10632.820865702632 -28235.869341258876 -999544.73576873052
 12122.234577385496 -28479.74499981571 -999520.86299066117
 13831.744270017516 -28937.126131467252 -999485.53045139194
 16004.554540941168 -29674.234263129434 -999431.48542300926
 18562.253728679359 -30748.323577820538 -999354.7835146765
 20638.557515149827 -31423.339968301232 -999293.06194375746
 22411.415230273542 -33259.204031786088 -999195.45325954538
 24588.356821797457 -34474.853860025964 -999103.04631711217
 -0 0 -0
 0 -0 0
 -0 0 -0
 0 -0 -0
 -0 0 0
 -0 0 0
 -0 0 -0
 -0 0 0
 -0 0 -0
 -0 0 0
 0 -0 -0
 -0 0 -0
 -0 0 0
 -0 0 0
 -0 -0 0
 0 0 -0
 0 -0 -0
 -0 -0 0
 -8621.779821727665 -29968.900210001331 -999513.64669668628
 -5723.328077721927 -29004.076267377724 -999562.90801309305
 -2798.107499007262 -28154.395626606962 -999599.67016867525
 130.58187041640011 -26458.637984826877 -999649.90042732609
 2355.1147393114798 -24810.316547318209 -999689.40257831395
 4171.1683734157714 -23415.862725371229 -999717.10935005348
 6092.1419122555562 -22203.733494214346 -999734.90487520676
 7875.5373375128438 -21453.852253917117 -999738.81996004982
 9384.2059889983666 -21120.756760498942 -999732.88948189549
 10696.423999352326 -21095.981906339181 -999720.2338959804
 11979.540564672992 -21320.161734667839 -999700.92593308468
 13419.554320360479 -21803.589166161997 -999672.20580614137
 15160.187001115451 -22629.111135266121 -999628.9772007009
 17167.593377906382 -23898.409948274475 -999566.97611493489
 19167.781296996429 -25496.831576173056 -999491.12439267151
 21333.104913963842 -27492.020469555471 -999394.36032290652
 24132.853541853405 -29438.149380294086 -999275.23773032194
 27153.814144524531 -30577.572861736458 -999163.49133427104
 29840.976246025835 -32094.073962141367 -999039.28178685566
 -0 0 -0
 -0 -0 -0
 0 0 -0
 -0 0 0
 -0 0 -0
 0 0 -0
 0 -0 -0
 -0 -0 -0
 -0 -0 0
 0 0 0
 0 0 0
 0 0 -0
 -0 0 0
 0 0 0
 -0 -0 -0
 -11152.758482740543 -26983.74655925357 -999573.65581524384
 -7848.588283259508 -26114.282920742018 -999628.15280958137
 -4003.7193006507241 -24075.871972388493 -999702.11694310745
 -736.11721897809184 -22075.761390495893 -999756.02968447725
 1968.1485715877345 -20169.298594704542 -999794.64180670504
 4054.5974071811506 -18562.712698343712 -999819.47667423671
 5716.7802575023334 -17263.080771310346 -999834.63856068265
 7202.7265347031471 -16258.070871625647 -999841.8854308913
 8531.1987376024517 -15612.574528805231 -999841.72055614996
 9693.2382295385269 -15300.940843898168 -999835.9477143822
 10745.636308258234 -15262.874228280465 -999825.77280775399
 11791.5127892783 -15461.969073331724 -999810.92599476792
 12945.09086375597 -15907.433641540258 -999789.66696874262
 14293.291035397468 -16652.693367766769 -999759.16581693653
 15851.585886445699 -17758.213190372051 -999716.64639995375
 17593.995091426994 -19215.123624062835 -999660.55756983568
 19662.475040515619 -21014.014667371124 -999585.81335613236
 22294.770909621519 -23079.770262341612 -999485.00108542165
 25489.618460878635 -25269.266999281252 -999355.66416368389
 29207.894593705994 -27527.068962519443 -999194.2550714229
 32632.066145218949 -28511.296903224702 -999060.6859485514
 -0 -0 -0
 0 -0 0
 -0 0 -0
 -0 -0 -0
 0 -0 -0
 0 -0 -0
 0 0 -0
 0 -0 -0
 -0 0 -0
 0 0 -0
 -0 0 0
 -0 0 0
 -0 0 -0
 -12372.491755230194 -25186.578510863998 -999606.20131664001
 -9422.0694174002019 -23698.691888960195 -999674.74541004887
 -5370.9454872643646 -21175.315396924674 -999761.35100453522
 -1606.178936730757 -18679.482405914729 -999824.23311613663
 1408.2246101094531 -16581.909377442116 -999861.5190039298
 3741.8770877265574 -14860.198104969615 -999882.57954028831
 5520.9381775897909 -13495.734274788954 -999893.68654773664
 6911.3470444531331 -12442.828086092064 -999898.69952473231
 8068.9441594328855 -11669.012845876046 -999899.35807527904
 9068.5550720939536 -11169.727616953196 -999896.49389017641
 9952.3522431589554 -10922.66221551225 -999890.81710702484
 10773.379187315846 -10895.744533173589 -999882.60163478891
 11600.851216954567 -11069.837200334272 -999871.43121273362
 12508.227350133624 -11451.159985092725 -999856.19725216157
 13557.07753032326 -12069.600968567971 -999835.25161963387
 14787.948513222842 -12960.589790790807 -999806.6511536343
 16246.312823236765 -14141.7588816853 -999768.00707733294
 18046.078842820531 -15630.033746845489 -999714.97992351349
 20349.939435584969 -17444.033059122325 -999640.72829972266
 23292.592146327705 -19604.071216082772 -999536.46033692011
 26979.698028904149 -22128.137773430015 -999391.03528746392
 31123.707875615302 -24685.900558787751 -999210.64902335533
 34394.326090391849 -26351.750082185077 -999060.86681462708
 0 -0 -0
 -0 0 -0
 0 0 0
 0 0 -0
 0 -0 0
 -0 0 0
 -0 0 0
 0 -0 0
 -0 -0 -0
 -0 -0 -0
 0 0 0
 -13134.656137875758 -24013.942928517179 -999625.33548983524
 -10327.948508388259 -22251.734810253714 -999699.0516038026
 -6370.5510998800555 -19357.213814254541 -999792.33561376808
 -2487.8431262981703 -16503.12579669608 -999860.71903816552
 776.42015742494266 -14114.561313256381 -999900.08317365055
 3319.3511394169623 -12239.734637364996 -999919.58216849645
 5245.8958854442872 -10792.126565411831 -999928.00269847177
 6698.6046271817468 -9690.4749470712341 -999930.60928813892
 7816.684465288683 -8869.798371911731 -999930.11061814311
 8716.2890303946297 -8286.4857877393169 -999927.67761415022
 9474.8494508053336 -7915.5585462188183 -999923.78267585288
 10146.175037373223 -7735.3347340120135 -999918.60655188526
 10779.33571424488 -7726.2829751557365 -999912.05136899278
 11425.79954995138 -7878.0729559789715 -999903.68889765791
 12137.663823235122 -8194.7140291360301 -999892.75613882451
 12963.529255456784 -8693.5841319717802 -999878.17683164973
 13949.599590770489 -9398.3786560030312 -999858.52956800605
 15154.44143727333 -10332.983829385783 -999831.77202462708
 16671.443352841554 -11528.557008455486 -999794.55657141667
 18627.747494781863 -13031.938008471679 -999741.55441044539
 21165.794727901557 -14912.439596738153 -999664.75794578751
 24418.819416509421 -17256.136807929652 -999552.87353934895
 28369.315354249833 -20064.250048074126 -999396.12157359265
 32565.823816843891 -23040.77160902158 -999203.97815600759
 35767.406842369492 -25104.284286076683 -999044.77753414831
 0 -0 0
 0 0 0
 0 -0 -0
 0 -0 0
 0 -0 -0
 -0 -0 0
 0 -0 -0
 0 -0 0
 0 0 -0
 -14065.742688275692 -22871.930318183651 -999639.44984486641
 -11143.364723827754 -21142.105138964522 -999714.37761638942
 -7136.5710605622198 -18167.658787360848 -999809.484615786
 -3206.9806498381022 -15143.526548823302 -999880.18726184219
 163.89834015381379 -12557.71243705985 -999921.13538802764
 2856.2271032621784 -10511.675169108279 -999940.67156600556
 4917.2099616270771 -8951.2529294658852 -999947.84669860953
 6463.3186587576938 -7779.2836870276687 -999948.85282059899
 7620.1676582827095 -6909.9600652998624 -999947.09134871513
 8500.280623478433 -6278.8667756638497 -999944.15897155751
 9194.8946921098905 -5842.0119529651147 -999940.66064339166
 9771.6601852642088 -5570.9685723075208 -999936.73748212191
 10281.506637942639 -5445.8160519794701 -999932.31456373178
 10767.656042316641 -5452.7078416822251 -999927.16012745036
 11270.994906553822 -5585.2546884038557 -999920.88167208608
 11831.697925684 -5846.0847510751646 -999912.91331659409
 12489.866526033411 -6246.4036218917408 -999902.4880836904
 13288.789211286825 -6803.843090697711 -999888.55168988451
 14283.257647593238 -7541.7894461425885 -999869.54647239984
 15549.646076829726 -8493.9024983570725 -999843.01874205924
 17189.032389910622 -9711.140469616812 -999805.09646444477
 19322.98379993128 -11268.500926250961 -999749.79028952192
 22079.138028626352 -13263.968572012416 -999668.23436659889
 25539.279719001021 -15784.172712983869 -999549.20093170065
 29635.53329544708 -18810.774365247777 -999383.75508814142
 33943.017246111121 -21971.936222293789 -999182.21841607708
 37271.050471088201 -24128.302664182898 -999013.86066827306
 0 -0 0
 0 -0 0
 0 0 -0
 0 0 -0
 0 0 -0
 0 -0 0
 -0 0 -0
 -15831.166251945104 -21190.243149943894 -999650.11267460452
 -12459.610634679409 -19848.731984972768 -999725.35525584267
 -8125.8771910539072 -17096.719631817028 -999820.82009613432
 -3977.8350822383427 -14142.955240047691 -999892.07099823363
 -452.01351377549224 -11523.974530047184 -999933.4946359254
 2373.6477341926748 -9394.85943708997 -999953.05010414927
 4556.6899337972973 -7743.9613743489072 -999959.63300479273
 6201.9540068885863 -6498.3031478503171 -999959.65309741138
 7424.9696445432819 -5573.6745072895719 -999956.90106037282
 8332.7329153889677 -4897.7868480035095 -999953.28753204888
 9016.1248020480925 -4415.9396695187797 -999949.60321527685
 9548.1284579209205 -4089.7193809165251 -999946.05226398911
 9985.1649114075062 -3893.3412597368961 -999942.56753851986
 10371.387238249325 -3809.6623314485978 -999938.9585368071
 10743.756315594679 -3828.0230111796304 -999934.95685472316
 11135.872767863963 -3943.8873868228925 -999930.21661012841
 11580.337511942442 -4159.0291775815331 -999924.29626417696
 12110.768676203776 -4481.3667330940671 -999916.61984101194
 12765.002466521933 -4924.6524784965195 -999906.39687422535
 13590.219383920698 -5509.3319323694777 -999892.47081811551
 14648.654116446691 -6265.8058997466678 -999873.07024892105
 16021.18867865147 -7239.3645719177266 -999845.44461327523
 17807.848142278159 -8495.0510037419244 -999805.33837991953
 20123.159965960687 -10118.310421769709 -999746.30693351047
 23079.569057998757 -12202.058011871852 -999659.16355144384
 26752.422319117039 -14807.186023645991 -999532.41825471597
 31098.281690190237 -17862.122163517193 -999356.71382531524
 35731.577216366277 -20933.763321220442 -999142.14801640809
 39480.07128991808 -22844.566359616962 -998959.18322961719
 0 0 0
 0 0 0
 -0 0 0
 0 -0 0
 -0 0 -0
 -18967.001242175666 -18267.695994953905 -999653.21194247913
 -14955.927826832107 -17903.47341228816 -999727.85590010136
 -9910.1990745709536 -15775.201040132615 -999826.45043349697
 -5213.4996264312567 -13155.299317304427 -999899.87374812539
 -1312.9354048109035 -10687.499558166768 -999942.02509636397
 1763.7485859934986 -8600.5902643885929 -999961.45877630182
 4122.1326203929948 -6933.7953726883552 -999967.46472292265
 5894.7930945693097 -5648.6667889995542 -999966.67143354286
 7207.8667761971092 -4680.9931226141116 -999963.06679793051
 8171.8219283208018 -3965.3577245306979 -999958.74778137112
 8879.1508666761983 -3446.149309069915 -999954.64133870893
 9404.9383366274342 -3080.5629637869752 -999951.02743419912
 9808.7703964570483 -2837.7356090060484 -999947.86628099915
 10137.428602333719 -2696.4410963574619 -999944.97935973771
 10428.256438785751 -2642.6844679080928 -999942.13216888218
 10712.576994827286 -2668.0934740574171 -999939.05912877689
 11018.545009347616 -2769.206894990883 -999935.45949678659
 11373.39261415046 -2947.2583238720722 -999930.97742235009
 11805.568564028948 -3208.1375309665586 -999925.16540212254
 12347.422935890434 -3562.6497953825783 -999917.42092698719
 13038.72351928539 -4027.5937152099418 -999906.88075332926
 13930.559104950558 -4628.0729519542028 -999892.25442733313
 15088.805770210933 -5400.7315167968964 -999871.57177285152
 16596.736324443325 -6396.8856995297429 -999841.80158499291
 18556.190200740115 -7683.354525988495 -999798.29659209843
 21085.813695469838 -9336.9070855452755 -999734.06995404314
 24313.645291205969 -11425.919615952596 -999639.08237602597
 28351.255696963188 -13964.764872631236 -999500.47105664643
 33205.16724357575 -16807.012036137516 -999307.23064268043
 38510.975703708013 -19400.406745398861 -999069.8318778628
 42941.23161488444 -20446.070780252085 -998868.36410862755
 0 0 0
 -0 -0 -0
 0 -0 -0
 0 0 -0
 -17936.64719255911 -15755.877544051646 -999714.97388521011
 -12902.492249774297 -14240.549875310498 -999815.34916853195
 -7390.1783157252603 -12068.086708103005 -999899.86826065101
 -2782.4905520558646 -9873.3797731296054 -999947.385674958
 789.10885340196103 -7932.7669721076245 -999968.22375282692
 3475.980884588354 -6329.5678005872287 -999973.92672426614
 5465.7303580918442 -5058.7484054868019 -999972.26704355271
 6923.09506469404 -4079.6168030116105 -999967.7132195147
 7981.0319169077129 -3341.3911721608893 -999962.56841672643
 8744.3423756962311 -2795.4565910725687 -999957.86006154492
 9295.0587197680961 -2400.753251442804 -999953.91807183879
 9697.2222170249261 -2125.2443992065132 -999950.72239461751
 10000.833228833024 -1945.3424408963065 -999948.09814185696
 10245.218957801277 -1844.5075956619166 -999945.81517212035
 10462.054535469444 -1811.7705985928433 -999943.62986230128
 10678.036703833193 -1840.6236290728393 -999941.29409521213
 10917.146461320208 -1928.3865202839258 -999938.54673103301
 11202.594529212291 -2075.9433308661642 -999935.09406116023
 11558.727515296963 -2287.7569918808831 -999930.57858341991
 12013.219112198462 -2572.2298472603038 -999924.5302522463
 12599.725725781878 -2942.6106781964418 -999916.29047337326
 13360.951027513622 -3418.5737581758763 -999904.8946480361
 14351.99163987204 -4028.2819670772342 -999888.89046751743
 15644.028234605885 -4810.3441325428257 -999866.05351413018
 17328.554871343636 -5814.5098105194356 -999832.94237674226
 19522.198225957025 -7099.1353370875095 -999784.2197463871
 22371.029300036356 -8722.1742703082837 -999711.68880035356
 26046.918271527982 -10718.920333102364 -999603.25269351201
 30704.705642307159 -13050.985066172252 -999443.29145791056
 36272.652049714663 -15489.953795694388 -999221.87528330646
 41498.230369083612 -17369.397525619421 -998987.58796385012
 -0 0 -0
 -0 -0 -0
 0 0 -0
 -21373.782025244949 -13303.410365275435 -999683.0401255145
 -16920.41603412449 -12930.243014256264 -999773.22845574538
 -10800.723651009774 -11103.840815732332 -999880.01734595827
 -5224.5022678640398 -9119.3756908493178 -999944.76925631345
 -849.73686002763691 -7331.9989266546736 -999972.75949848152
 2405.284192593695 -5827.6252962756707 -999980.1264982014
 4775.28638503211 -4610.4981139822385 -999977.96973087476
 6482.1071514576479 -3652.8934373325633 -999972.31894508575
 7701.9063722608216 -2915.8613893941183 -999966.08862030471
 8567.6648104198885 -2359.427970224508 -999960.51333007624
 9178.6641914015527 -1947.577670183709 -999955.97856349649
 9609.3252647138161 -1650.3598879114495 -999952.46746042767
 9915.9887586579007 -1444.3023946432054 -999949.79231835972
 10141.889337444574 -1311.8955258927729 -999947.70913823112
 10320.861202065431 -1240.6842564097954 -999945.96880362695
 10480.21592555737 -1222.333484082887 -999944.33393814869
 10643.053393644437 -1251.8869064353453 -999942.57744814223
 10830.167752989766 -1327.2972976912256 -999940.47110231791
 11061.714988417991 -1449.2161364371339 -999937.76718059031
 11358.849094089648 -1621.0270060947976 -999934.17224270466
 11745.540452076808 -1849.1607501147353 -999929.30894339166
 12250.74360642277 -2143.7680526675445 -999922.65877898072
 12911.032282781687 -2519.7774262885164 -999913.47424020397
 13773.862191799288 -2998.2220507103916 -999900.64075629832
 14901.793032534015 -3607.5211730818655 -999882.45426920115
 16378.203979279207 -4384.1520334795723 -999856.25649158191
 18315.091329224761 -5371.8296463013203 -999817.83384567278
 20862.797808223506 -6617.8122887327845 -999760.44542086381
 24217.614856979551 -8163.7778095799658 -999673.3765898312
 28608.335383956295 -10025.826650555855 -999540.41736516694
 34186.179373636791 -12147.415476477003 -999341.65601013321
 40539.145927496829 -14235.344420129084 -999076.53991909418
 45666.361672803534 -15101.505897651243 -998842.59417147026
 -0 -0 0
 0 0 -0
 -20620.75204705384 -11170.817315397217 -999724.96088950383
 -15180.323889096127 -10182.721227291162 -999832.92101982189
 -8798.1326740245822 -8506.9039949093221 -999925.10991867364
 -3412.3513717886294 -6839.2857322499221 -999970.78958776977
 673.1044231588055 -5410.9732443056564 -999985.13403899397
 3641.0047484003571 -4249.3627351886626 -999984.3428778107
 5755.0867097933269 -3328.138678422521 -999977.90099076682
 7244.8998720560812 -2610.3488353260168 -999970.34831278969
 8286.3115026779196 -2059.7826481028592 -999963.54650413303
 9008.4333620179277 -1644.2677333795064 -999958.07137698669
 9505.1067968831321 -1336.6785950827152 -999953.93205642886
 9844.9156947318988 -1115.0754741455946 -999950.91591620154
 10078.692741741133 -962.38231611504136 -999948.74557293952
 10244.879936472373 -865.80964720793293 -999947.14500754594
 10373.345660064353 -816.1854765865836 -999945.8623050974
 10488.167995602567 -807.32673264154118 -999944.6717472137
 10609.742624826069 -835.54139339261053 -999943.36601230316
 10756.464591085587 -899.3021821435799 -999941.7431656135
 10946.184302370029 -999.09929147130606 -999939.58960020379
 11197.624497321469 -1137.4766199092514 -999936.65767015249
 11531.93856648465 -1319.2726869902733 -999932.63468719553
 11974.585346110041 -1552.0955282738396 -999927.09749524237
 12557.715271526247 -1847.0347689062855 -999919.44288013584
 13323.346694682647 -2219.5515444418479 -999908.77685106592
 14327.774380161014 -2690.4074662146672 -999893.73264811339
 15647.849408989438 -3286.4126790084465 -999872.16397926421
 17389.84331847967 -4040.6918207075441 -999840.6203785527
 19701.015123168265 -4992.011924152197 -999793.45357932069
 22780.909519288158 -6182.0941359157587 -999721.3671186429
 26877.707544779398 -7647.0019729019305 -999609.47984598659
 32213.265563906683 -9385.3112010375462 -999436.95221628121
 38640.924758135974 -11232.153896950917 -999190.03080128436
 44437.406173869036 -12527.495659771133 -998933.62081022817
 0 0 0
 -0 -0 0
 -19182.866959788604 -9616.0854168671249 -999769.74775018007
 -13369.451510519009 -8138.68578147056 -999877.50227718311
 -7055.3699170987202 -6510.069284081439 -999953.91931490996
 -1936.8150229217531 -5099.8005512901018 -999985.12028024916
 1863.6483681367831 -3962.673965992632 -999990.41196893447
 4582.5277833628779 -3069.220858684369 -999984.79004554625
 6490.7510675922276 -2375.3337795408106 -999976.11368472921
 7813.656203637468 -1841.04319780486 -999967.77814921353
 8721.074129405597 -1433.597725000627 -999960.94306907419
 9336.295520722113 -1126.8167821006314 -999955.78095728264
 9747.8769262996775 -899.9881881644618 -999952.08331034065
 10019.704360871152 -736.93811878146778 -999949.5299497518
 10198.534430025758 -625.2792786890268 -999947.7980981326
 10319.367907530803 -555.77366259977964 -999946.59945500351
 10409.227476629432 -521.78392413327504 -999945.68638745404
 10489.84327277414 -518.81925453039628 -999944.84548633662
 10579.624451863951 -544.19139070533595 -999943.88612671057
 10695.191685419008 -596.79122125302729 -999942.62671167788
 10852.681993756651 -676.99039088242091 -999940.87874111498
 11069.006407103871 -786.67343650250496 -999938.42722542863
 11363.231578059873 -929.41223866992641 -999935.00446828746
 11758.267523089247 -1110.7962778619019 -999930.25220586499
 12283.086963227033 -1338.921747512273 -999923.66361798241
 12975.794778961716 -1625.0225013203403 -999914.49036991375
 13888.013835848313 -1984.2094137885611 -999901.58814990253
 15091.221381599456 -2436.28813774319 -999883.15294204326
 16685.722616629606 -3006.6565043880323 -999856.26300855121
 18812.439161660135 -3727.2961274748554 -999816.08278541267
 21665.216170831281 -4637.5884037163196 -999754.52546216024
 25492.392062847328 -5782.9122948658842 -999658.28955313726
 30544.993554700319 -7201.326038856474 -999507.45083367196
 36807.709193464463 -8861.8131501843145 -999283.07341394539
 42808.983909500035 -10423.468451709879 -999028.89958302642
 -0 0 -0
 -23120.294235826124 -8400.557127978982 -999697.39553246228
 -18420.184343621084 -7864.1050759978452 -999799.40621111635
 -11771.327767924053 -6311.828244625236 -999910.7943545715
 -5603.9789227908495 -4870.3712132233504 -999972.43707238161
 -766.08668621377524 -3726.3782068379405 -999992.76358214149
 2778.6210304419956 -2846.5897935520957 -999992.0880645588
 5290.7385507214049 -2174.5486604060716 -999983.63957802393
 7036.5548854343788 -1661.9196710917943 -999973.86211758119
 8232.3352432162465 -1271.6256841619947 -999965.30521041725
 9039.9258844535925 -975.93392181151535 -999958.66279210965
 9576.3932918437731 -754.07920693076494 -999953.86096362933
 9925.473122066669 -590.40853692180372 -999950.56697871955
 10147.237884810698 -473.0938559771314 -999948.40354165889
 10285.373541672405 -393.25147903114032 -999947.02681911213
 10372.388478304831 -344.31872331572026 -999946.14605081198
 10433.272958430718 -321.59472895940496 -999945.52021207882
 10488.079029664039 -321.89896947461591 -999944.94677423162
 10553.787305392318 -343.32767767846366 -999944.24829568272
 10645.734489743929 -385.10061020577928 -999943.25840754271
 10778.81231559871 -447.49603345919371 -999941.80678295728
 10968.614292868562 -531.87625864849747 -999939.70148611441
 11232.697772865447 -640.81021371531244 -999936.70592843695
 11592.145640297984 -778.30159519374195 -999932.50592531543
 12073.660979884424 -950.13021160677908 -999926.65929213236
 12712.517684556058 -1164.31446303297 -999918.51481305773
 13556.820152682581 -1431.7143598110688 -999907.07709333673
 14673.666958564294 -1766.8300370790835 -999890.77493974753
 16157.857499368738 -2188.9201149959908 -999867.05729799904
 18143.394039614173 -2723.6538738821855 -999831.68531623296
 20816.248805572472 -3405.5227403482377 -999777.51835122285
 24420.849224527199 -4280.8032636464004 -999692.60117626714
 29233.445062573148 -5408.5940023604844 -999557.97870893462
 35411.019407016189 -6844.9373990395079 -999349.39162264904
 42425.232251532958 -8504.0206438189343 -999063.4520896523
 48074.811731962116 -9478.2702008081669 -998798.76595385163
 -23011.501783865995 -5768.7225042648697 -999718.55670799664
 -17390.364539792012 -5332.4918337710642 -999834.55619018071
 -10488.32408829306 -4365.7467233153848 -999935.4655743374
 -4496.0572366888628 -3386.2479333961387 -999984.15927166445
 108.33732872524021 -2578.7063800866154 -999996.66926266742
 3451.4119551779791 -1953.0954858943142 -999992.13655585237
 5805.0284188501328 -1477.1904203600636 -999982.05961583066
 7429.1637699534358 -1116.7497579531519 -999971.77979963867
 8531.5713747707014 -844.13721565178446 -999963.24918580789
 9266.9514798040418 -638.62107934654796 -999956.8569560328
 9746.9912726677885 -484.93566914969546 -999952.37936540123
 10051.459184884283 -371.83788272829332 -999949.41367293359
 10237.461368936716 -291.01561286295708 -999947.55347199703
 10346.411916502959 -236.32826697019104 -999946.44652071455
 10409.03886132703 -203.28654214915821 -999945.80382366991
 10448.907752998863 -188.69212599076326 -999945.39086994692
 10484.901549255324 -190.3863885343294 -999945.01378452091
 10533.004506676418 -207.07993912359163 -999944.50492712902
 10607.654478877463 -238.24904284278955 -999943.70886757923
 10722.868756402459 -284.093244820591 -999942.46803336707
 10893.315638155755 -345.55384946394526 -999940.60636967083
 11135.496142751095 -424.39681607652017 -999937.90837881377
 11469.2187084262 -523.36654947279533 -999934.08938273205
 11919.598206847746 -646.42040298746201 -999928.75012135238
 12519.893767201589 -799.06100021950374 -999921.30378424062
 13315.616052333768 -988.80082533396546 -999910.8543475637
 14370.459585232704 -1225.8268371551601 -999895.98821071105
 15774.661500311386 -1523.9805501339467 -999874.41088260338
 17656.089085244461 -1902.1996643275247 -999842.30964420154
 20192.948723282359 -2386.4508184855758 -999793.2534651102
 23622.238909341311 -3011.4455766390406 -999716.42030350224
 28223.025303338047 -3818.2088311645393 -999594.35878962849
 34206.6605933342 -4830.0366572097455 -999403.10941928858
 41307.049604851134 -5942.2955388830915 -999128.82891880907
 47516.201714736817 -6666.433115535011 -998848.22132500203
 -22848.800458722573 -3330.713751568182 -999733.38378964947
 -16798.049404326877 -3113.4719393958917 -999854.05526441324
 -9714.95704011624 -2631.9403674852974 -999949.34496683907
 -3782.3828242028703 -2086.8858761933889 -999990.6692002234
 690.04624210968757 -1602.9240046734828 -999998.47723424993
 3904.0468040933442 -1213.9531969267662 -999991.64233316819
 6151.4716700379013 -913.75994146252549 -999980.66203255276
 7692.9731209437277 -685.61847676470677 -999970.17360112537
 8731.9997259990596 -513.24712719972456 -999961.74364731135
 9418.6217379530863 -383.59178039590842 -999955.57022394915
 9860.7560194378257 -286.84598472329571 -999951.34042117558
 10135.337579842873 -215.79383018528827 -999948.61286226381
 10297.37722124908 -165.14842586176636 -999946.96696792927
 10386.72125915015 -131.04358088062148 -999946.04796912149
 10432.897323860247 -110.67559245260682 -999945.56972084392
 10458.526011106631 -102.05754527169502 -999945.30291308067
 10481.721214460205 -103.85267986772688 -999945.05985829199
 10517.813018342487 -115.26478224128142 -999944.67963149899
 10580.648315605449 -135.97330542516218 -999944.01412903192
 10683.668526382289 -166.1074976658177 -999942.9141881637
 10840.932617689787 -206.25824273458315 -999941.2140908665
 11068.246930892305 -257.52943234149109 -999938.71191611944
 11384.581802327297 -321.6335420493246 -999935.14182123379
 11814.001587837209 -401.03987871124099 -999930.13182596816
 12388.412600847729 -499.19100887290551 -999923.13606675167
 13151.541488902552 -620.81553500181656 -999913.32201573206
 14164.676326536119 -772.38323086353375 -999899.37762192299
 15514.765456165029 -962.75862455891036 -999879.17527502822
 17325.26363506533 -1204.0595239080485 -999849.18136718904
 19769.022578788547 -1512.4522047285488 -999803.42979738151
 23078.71474967205 -1907.6332987201497 -999731.8309730367
 27538.108822189839 -2406.7908933480412 -999617.85694338859
 33397.981507503137 -3001.6451615771862 -999437.62434558594
 40518.248493310188 -3600.3731681177296 -999172.31189224066
 46981.526391345782 -3970.9240374035426 -998887.86554859532
 -22735.432820381586 -1495.0278995768981 -999740.3987966323
 -16518.64723771422 -1410.2959269993246 -999862.56323498487
 -9332.9345805951634 -1217.8408236597795 -999955.70561692514
 -3403.940823843207 -983.51027739752351 -999993.72292750038
 1012.7451988722888 -763.15315960041642 -999999.19597188523
 4160.922329965425 -579.86815844536045 -999991.17520020274
 6349.923474228719 -435.97883888862464 -999979.74399200873
 7844.4733040112023 -325.86943247582582 -999969.17854886688
 8847.0687216528113 -242.52808698641272 -999960.83451061288
 9505.6034977309464 -179.86035677905588 -999954.80455488362
 9925.925188418063 -133.14548262096179 -999950.72792684834
 10183.327556695453 -98.87890089289445 -999948.14368687919
 10331.590571133027 -74.495355457901283 -999946.62491890648
 10409.643826597783 -58.1272291020219 -999945.81650038855
 10446.320895776038 -48.426416821708244 -999945.43452861684
 10463.701776407937 -44.440949403563529 -999945.25298645068
 10479.46335970461 -45.531924768892253 -999945.08787959768
 10508.564983564476 -51.319661002632884 -999944.78218963579
 10564.518628040296 -61.652276609787428 -999944.19201531168
 10660.439113696531 -76.593360021657929 -999943.17297102464
 10810.039814889551 -96.427717802959293 -999941.56516313273
 11028.733194180097 -121.68599069123223 -999939.17426844081
 11335.01381515715 -153.19057645394756 -999935.74493287201
 11752.346602262189 -192.12763100225217 -999930.92033215659
 12311.858165677864 -240.15374315986472 -999924.17736280768
 13056.233857087667 -299.55176674002524 -999914.71887666883
 14045.345039601189 -373.45590046808968 -999901.28953482653
 15364.217102508768 -466.15982849401018 -999881.85478477459
 17133.830239063409 -583.46516259676446 -999853.03491550335
 19524.407658361219 -732.81454855671836 -999809.11202510423
 22767.683079681497 -922.33597220631316 -999740.35724458855
 27153.731016666308 -1156.5063874738423 -999630.60046441678
 32958.696055904737 -1424.2244266327696 -999455.69983820536
 40093.8593500426 -1678.0323218673798 -999194.50891703041