# OOMMF OVF 2.0
#
# Segment count: 1
#
# Begin: Segment
# Begin: Header
#
# Title: Oxs_TimeDriver::Magnetization
# Desc: Oxs vector field output
# Desc:  MIF source file: /mnt/gpfs/work/plgrid/groups/plggspinsym/MF/switching-obrazki/p-ap/Anisotropy.mif
# Desc:  Iteration: 37700, State id: 264050
# Desc:  Stage: 0, Stage iteration: 37700
# Desc:  Stage simulation time: 5.55063e-09 s
# Desc:  Total simulation time: 5.55063e-09 s
# meshunit: m
# meshtype: rectangular
# xbase: 1.0000000000000001e-09
# ybase: 1.0000000000000001e-09
# zbase: 3.4999999999999998e-10
# xnodes: 35
# ynodes: 35
# znodes: 5
# xstepsize: 2.0000000000000001e-09
# ystepsize: 2.0000000000000001e-09
# zstepsize: 6.9999999999999996e-10
# xmin: 0
# ymin: 0
# zmin: 0
# xmax: 7.0000000000000005e-08
# ymax: 7.0000000000000005e-08
# zmax: 3.4999999999999999e-09
# valuedim: 3
# valuelabels: Magnetization_x Magnetization_y Magnetization_z
# valueunits: A/m A/m A/m
#
# End: Header
#
# Begin: Data Text
 -0 0 -0
 0 0 -0
 -0 -0 0
 -0 0 0
 0 0 0
 -0 0 -0
 0 0 0
 0 -0 0
 -0 0 0
 0 0 0
 0 0 0
 -0 -0 0
 0 0 0
 19363.677507467622 33120.931667780787 -999263.75491100701
 17193.673993578319 32967.198743155175 -999308.53162656038
 15325.403771588315 32717.076681739807 -999347.14933932689
 14000.238222689799 32521.756512888674 -999372.96775679535
 12910.117415691895 32432.787835679577 -999390.53584748297
 11704.340448409039 32471.777401035677 -999404.11850616522
 10038.176346211418 32648.847000979938 -999416.47365107446
 7653.0250449829218 32928.805506224242 -999428.3991240164
 4992.4602411157439 33134.36203054498 -999438.43702029483
 0 0 0
 -0 0 -0
 -0 0 -0
 -0 0 0
 0 -0 0
 -0 0 0
 -0 -0 0
 0 0 0
 0 -0 0
 0 -0 -0
 0 -0 0
 -0 -0 0
 0 0 -0
 -0 -0 -0
 -0 -0 -0
 -0 -0 -0
 -0 0 -0
 0 0 -0
 0 0 -0
 -0 -0 0
 0 0 0
 0 0 -0
 0 0 0
 23047.371701640717 31723.083309105907 -999230.93659224233
 21446.531539048785 30706.049276704518 -999298.34625238983
 20410.794069682532 29002.733031455085 -999370.92261189548
 18991.997913749346 28317.438275225999 -999418.54430702503
 16949.539167769271 27393.361965810487 -999481.02375293279
 15284.646916904823 26822.229498576296 -999523.36019392335
 14085.406900385431 26520.148115724125 -999549.03984565486
 13091.407404997828 26417.978971683824 -999565.25821939611
 12004.804435455009 26512.782997956656 -999576.38878085231
 10543.351373845917 26860.629527574391 -999583.58546106098
 8523.0317733744523 27575.71596561898 -999583.38212395948
 6250.5810995540578 28720.616797562321 -999567.93486320134
 4958.6262355548579 29463.826481999498 -999553.54781767179
 3388.382874048606 30839.700040295455 -999518.60000848596
 1036.4883910841854 31606.633406250883 -999499.84813232347
 -0 0 -0
 0 -0 0
 -0 0 -0
 0 -0 -0
 -0 0 0
 -0 0 0
 -0 0 -0
 -0 0 0
 -0 0 -0
 -0 0 0
 0 -0 -0
 -0 0 -0
 -0 0 0
 -0 0 0
 -0 -0 0
 0 0 -0
 0 -0 -0
 -0 -0 0
 26946.08057483879 29751.359736334543 -999194.05789640942
 24905.958843355445 28384.415897121427 -999286.75471471762
 22609.982002527398 27244.196004433237 -999373.07473131246
 20468.15069028013 25411.374890208743 -999467.51664749428
 18985.690498544944 23488.699050092931 -999543.80823114887
 17616.171225454571 21912.210289727365 -999604.68463866971
 16157.686115533334 20713.719580118566 -999654.87594496727
 14937.481447671245 19993.638553248533 -999688.51452109951
 14006.507975563391 19626.990352240038 -999709.25722634164
 13213.430649261396 19518.262953582664 -999722.18273966108
 12358.121021201279 19651.610459688585 -999730.50921294081
 11257.10359762704 20085.523286071439 -999734.88954468165
 9817.0962983425161 20936.71153017876 -999732.60361487221
 8179.9449303309302 22278.964297430193 -999718.32845595595
 6644.8570271693043 23867.566047296004 -999693.04547249223
 4691.4477466199196 25672.456087882296 -999659.39965393033
 1949.8879588107266 27464.250424702783 -999620.8845785273
 -797.93123441735679 28487.604127413466 -999593.82737030985
 -3582.2534677192311 29473.553024973608 -999559.14138793061
 -0 0 -0
 -0 -0 -0
 0 0 -0
 -0 0 0
 -0 0 -0
 0 0 -0
 0 -0 -0
 -0 -0 -0
 -0 -0 0
 0 0 0
 0 0 0
 0 0 -0
 -0 0 0
 0 0 0
 -0 -0 -0
 29278.432722751306 26514.638347512388 -999219.56912912789
 26383.953668818944 25620.223078673465 -999323.51676431613
 23315.735620152373 23482.67697985905 -999452.32020059403
 20797.141114722479 21335.225123380471 -999556.04499717208
 18814.946195000182 19317.685969091559 -999636.34628222615
 17392.754336930626 17557.966770103012 -999694.55830242229
 16267.951752693136 16128.559648968479 -999737.57722185377
 15281.72467261077 15070.475287861422 -999769.64830186183
 14473.739501781292 14397.324682489683 -999791.59223651304
 13837.326777145296 14038.722999353951 -999805.70244633546
 13282.951974824649 13931.537448113848 -999814.72056134813
 12688.249865394004 14061.63907599722 -999820.62322291068
 11940.815730527544 14466.137485532583 -999824.05841524911
 10977.840022123668 15213.058737898897 -999824.00944980606
 9813.6161272567006 16341.611008891348 -999818.30583768606
 8447.3750546474384 17790.971251324536 -999806.04278861044
 6625.4406039037194 19542.061425576783 -999787.08301920129
 4128.6564895020338 21581.056511114519 -999758.57695518481
 1023.1252025950037 23717.832755021602 -999718.16909778339
 -2741.0124406923119 25814.368674238711 -999662.99582446809
 -6069.3324701302163 26696.183117276167 -999625.16825574974
 -0 -0 -0
 0 -0 0
 -0 0 -0
 -0 -0 -0
 0 -0 -0
 0 -0 -0
 0 0 -0
 0 -0 -0
 -0 0 -0
 0 0 -0
 -0 0 0
 -0 0 0
 -0 0 -0
 30543.266338825833 24743.915531240858 -999227.12509495975
 27786.362677829595 23120.161248418201 -999346.47454873391
 24211.428322626929 20653.126923466847 -999493.49927193706
 21135.561439213805 18203.565551392934 -999610.88341607479
 18831.113629394251 16085.480727325963 -999693.27619487757
 17167.302732983007 14305.794372455888 -999750.28280278423
 16002.649073072076 12849.429662741339 -999789.38150991919
 15160.587433721515 11699.828301485793 -999816.61848880071
 14515.884198130818 10850.16859989558 -999835.76798757329
 14022.747627901354 10286.786226955854 -999848.76085240266
 13642.163886514723 9971.1722164386229 -999857.22335197625
 13310.85084528991 9868.5607097428056 -999862.70695495605
 12951.108829979814 9969.7896965936798 -999866.42711588216
 12489.220042709227 10294.495066250731 -999869.01279820444
 11870.059159473472 10878.824648496056 -999870.3680326856
 11054.234856868274 11750.282650757932 -999869.85890632612
 9972.0721974352618 12913.274267039975 -999866.89370325359
 8464.2441402756031 14390.996851467964 -999860.61817673116
 6353.5146724975393 16225.49538229455 -999848.17154951359
 3503.6378563671087 18432.592348547463 -999823.96653665171
 -184.05653126207969 21011.593137737342 -999779.21516553219
 -4265.9651853490059 23593.808567559088 -999712.52554837719
 -7300.2900639222844 25136.143685245304 -999657.38132903166
 0 -0 -0
 -0 0 -0
 0 0 0
 0 0 -0
 0 -0 0
 -0 0 0
 -0 0 0
 0 -0 0
 -0 -0 -0
 -0 -0 -0
 0 0 0
 31380.857385909156 24049.278491652392 -999218.13133757538
 28690.558375191245 21950.6672647179 -999347.29702278832
 25038.197661687387 19005.450329539824 -999505.81865020946
 21646.930827538261 16237.991594720312 -999633.80195685523
 18986.848456661864 13935.049600718037 -999722.61851891165
 17071.445505532578 12088.68510419604 -999781.19078166434
 15750.09721862243 10616.183649505909 -999819.59926895017
 14866.353195103464 9450.5577851162816 -999844.82721081702
 14280.400867038745 8546.7827982275103 -999861.50173655362
 13889.024693103114 7877.3904071554016 -999872.51273022185
 13628.840172874483 7420.6854068763196 -999879.58682215051
 13451.39198857862 7152.4147101129029 -999883.94477428449
 13305.935177146112 7053.3350832691376 -999886.59484626795
 13137.875349955291 7118.0835897980896 -999888.3583267174
 12893.652663443603 7357.1657534954929 -999889.80684526928
 12523.606491141692 7791.7624308154891 -999891.21794257034
 11975.283501491824 8445.2987312228324 -999892.62899293308
 11172.770797206582 9342.3606077343957 -999893.939121039
 9997.6917747432763 10523.70541976913 -999894.64334169461
 8303.6195424460166 12052.774175351085 -999892.88453172427
 5935.4217551288666 14010.212038191865 -999884.23566292599
 2766.3705249931913 16481.419905740491 -999860.34524427901
 -1118.5736142561504 19425.618900992326 -999810.67914049746
 -5162.3775111620889 22421.277588285739 -999735.28304733813
 -8074.2670482147632 24294.217361492218 -999672.24489550898
 0 -0 0
 0 0 0
 0 -0 -0
 0 -0 0
 0 -0 -0
 -0 -0 0
 0 -0 -0
 0 -0 0
 0 0 -0
 32303.049617062603 23789.762839235329 -999194.95603685407
 29489.787038146733 21514.611340429172 -999333.51487844868
 25719.715537346277 18309.416048556202 -999501.50651043979
 22161.729607374356 15263.900406567955 -999637.86997351598
 19262.299701927157 12745.651272241948 -999733.22050627065
 17100.406965452978 10766.263014006947 -999795.81098458753
 15588.293711329616 9230.6308384603653 -999835.88681017736
 14584.147462438623 8036.599512929135 -999861.34824337659
 13952.398715596983 7107.8011707494779 -999877.39735059417
 13579.982289234507 6393.4952191268349 -999887.34730463871
 13381.182798851256 5861.4091157097828 -999893.28822133923
 13294.967142112506 5489.3942345330961 -999896.54984884709
 13274.112957586372 5260.1168972676378 -999898.0593517602
 13275.81473268304 5161.9694446602243 -999898.5482610903
 13257.927552816 5191.9110382659501 -999898.63057050691
 13178.416338909279 5356.3983362497929 -999898.81405053276
 12993.984688786435 5669.8145275899697 -999899.49973241333
 12654.559458650072 6152.5276630503749 -999900.9993635685
 12093.188523813216 6832.6706453733486 -999903.53004836373
 11217.343621001704 7753.4174522370467 -999907.0235376386
 9909.7482083038794 8979.3344385212004 -999910.58022379631
 8035.2991984677428 10598.516351573211 -999911.54879716039
 5462.7152992632327 12714.079403996693 -999904.25087928679
 2130.1420217997475 15391.79009139942 -999879.27035855164
 -1845.4144468412251 18540.475434197968 -999826.40754092578
 -5960.3083949232478 21666.901171843969 -999747.47817508737
 -8987.4858115763927 23559.701566355168 -999682.03222869383
 0 -0 0
 0 -0 0
 0 0 -0
 0 0 -0
 0 0 -0
 0 -0 0
 -0 0 -0
 33853.217054906308 23361.997941233501 -999153.73028740031
 30635.86427031815 21240.802702931123 -999304.89447462722
 26549.084376123461 18040.240643082001 -999484.71515893075
 22740.450605208094 14895.52712355642 -999630.42929773964
 19616.630118833895 12236.832350045244 -999732.68815059646
 17236.54300763713 10129.579894827322 -999800.12662346696
 15527.262011242894 8502.6403045884617 -999843.2923424975
 14369.082872035226 7253.3304404957007 -999870.4509359888
 13635.679940787581 6289.9301412854938 -999887.24614896963
 13214.847264015943 5544.3757603246731 -999897.30858184479
 13014.896803071928 4970.5403039475905 -999902.9483856383
 12964.789079928183 4538.4491692852607 -999905.65391103318
 13010.744418575494 4228.4610975174865 -999906.41594422294
 13110.283304284769 4027.4175499339544 -999905.94576668064
 13226.643551292455 3927.6618529508487 -999904.81015581475
 13325.253364806686 3927.5162731486894 -999903.50146336027
 13371.58630128804 4031.6333644628635 -999902.46854990895
 13328.727624827703 4250.8205552905429 -999902.13298327848
 13153.255569456887 4602.2470067739741 -999902.90088108717
 12789.468319649612 5111.5064948488343 -999905.14650213392
 12164.03709982255 5816.9598441755752 -999909.0954579846
 11183.581136412569 6774.3548826774504 -999914.51416053018
 9735.5139587310114 8059.428400869735 -999920.12950125686
 7695.4654502302201 9763.7743984983827 -999922.72127449897
 4948.5615403284401 11972.53931268942 -999916.08149938623
 1430.4231824611913 14711.241353920062 -999890.76066705678
 -2778.2064368238562 17831.993498607149 -999837.13752633729
 -7218.1057557538061 20786.506012586731 -999757.88074767776
 -10679.893890409359 22338.386420504874 -999693.42118402349
 0 0 0
 0 0 0
 -0 0 0
 0 -0 0
 -0 0 -0
 36636.020160756008 21785.818198908408 -999091.17709655745
 32699.14219638651 20502.834891802169 -999254.92236016528
 27953.591252343544 17719.820568407082 -999452.15227899735
 23653.440324842086 14727.120072245038 -999611.73797388794
 20171.46852353953 12080.962612076864 -999723.54288571666
 17516.868345296905 9923.8026571851151 -999797.31819213985
 15585.078572426833 8231.682859680599 -999844.66029638273
 14246.816617113875 6925.442098472332 -999874.52536206716
 13376.628856939331 5919.3280330460748 -999893.00795438176
 12863.073857137446 5140.5921135018098 -999904.05321894179
 12612.687849132741 4534.8166772147515 -999910.17373708333
 12550.095766372544 4064.2827161437135 -999912.98456528632
 12616.031787980681 3704.0321747362973 -999913.55420734896
 12764.155327066004 3437.9480545434253 -999912.6246087508
 12957.161418787822 3255.9735035809313 -999910.75131959224
 13163.124210949294 3152.8077169275334 -999908.39178622141
 13352.638040828719 3127.613864373659 -999905.95812249579
 13496.536980120656 3184.0885713140706 -999903.84791214531
 13563.487429489156 3330.698019337588 -999902.46437312767
 13516.863433697459 3581.3882808797598 -999902.22925088857
 13310.856495621292 3957.2976405775025 -999903.57579855516
 12886.46644428778 4489.5256038689531 -999906.88723622262
 12168.105265273756 5222.1738018508449 -999912.32921443507
 11061.102619766503 6214.2446462963098 -999919.51434718526
 9450.9566424721233 7537.7875852959942 -999926.92791866593
 7206.2159522178681 9267.4847481623437 -999931.08971473249
 4188.9292857406062 11454.818542996458 -999925.61723539524
 289.78011195732353 14071.741197895501 -999900.94615774136
 -4462.6221085316174 16889.719765217797 -999847.39954163472
 -9611.5097928375362 19238.639727460777 -999768.72006526543
 -13747.209688619212 19782.551620878181 -999709.79032774537
 0 0 0
 -0 -0 -0
 0 -0 -0
 0 0 -0
 35155.723734468687 18957.40991803971 -999202.02746887237
 30320.893946596563 17017.397065764766 -999395.34298864205
 25284.801559892818 14455.139779424311 -999575.77388812019
 21189.478660687546 12001.689823311617 -999703.4387434473
 18092.412792415671 9909.8100300505666 -999787.20749193279
 15841.117049090941 8219.4856034474524 -999840.73685115064
 14264.991505163583 6888.901954695536 -999874.51865082362
 13215.415364551898 5852.1849815644046 -999895.54690861795
 12569.955628986732 5044.3995315296415 -999908.27091731364
 12229.312156231606 4411.4222566979297 -999915.4880677961
 12113.736667300789 3912.3587534369917 -999918.97213371238
 12159.730144423249 3518.3355520277591 -999919.87792910612
 12316.96795711674 3209.9629482483178 -999918.99093787314
 12545.324680853508 2974.7738653072925 -999916.87932002731
 12811.992118082106 2805.2723800778745 -999913.98795338359
 13088.85664708082 2697.8064551722287 -999910.69784856425
 13350.26073431732 2652.1029337392906 -999907.36415347713
 13570.99694621977 2671.2296319532702 -999904.34171181533
 13724.220886927442 2761.86560318082 -999902.00412812305
 13778.966945177781 2934.9904185685573 -999900.7580260986
 13697.161505550677 3207.1367326281734 -999901.04612439987
 13430.201183158142 3602.1927317042528 -999903.32227856084
 12915.16320391198 4153.3440346132475 -999907.96991160454
 12070.484231340482 4904.3824274175968 -999915.12161954364
 10790.951747652458 5908.9817802879015 -999924.31678337546
 8942.1953724050563 7225.661558728094 -999933.91129462188
 6356.7509044567196 8904.7274714009727 -999940.14698210743
 2841.9157655822796 10959.61803091157 -999935.90308949212
 -1763.6361961589259 13306.532366771959 -999909.90883366077
 -7348.1346521875948 15642.995086661924 -999850.63965666981
 -12556.14386738207 17259.4867390658 -999772.20073809079
 -0 0 -0
 -0 -0 -0
 0 0 -0
 38877.651536638026 17400.285203732445 -999092.46733514348
 34043.534829208846 16294.747381157267 -999287.50564795756
 28105.334633928229 14092.763161091243 -999505.61988995341
 23044.005011333735 11876.434928378132 -999663.90558348643
 19219.882867392687 9926.743634393275 -999766.00055381993
 16458.673441282881 8306.3434080413281 -999830.04392133607
 14524.633596565793 7000.1013237320012 -999870.00835125719
 13218.608231095561 5963.0693249645419 -999894.84957202314
 12386.825250832813 5143.5657135988577 -999910.05110057513
 11912.153547849784 4494.0961186878758 -999918.94856429659
 11704.583189730034 3975.7247353107496 -999923.59525374917
 11694.065855032353 3558.9221226849691 -999925.2886576592
 11825.483250104024 3222.6125194830611 -999924.88353598397
 12054.998527390087 2952.5298391389083 -999922.9768227418
 12347.227100341643 2739.5450516011629 -999920.0172393003
 12672.880278111639 2578.3381501507279 -999916.37164206884
 13006.746889271908 2466.5344617877076 -999912.36653174134
 13325.912204623071 2404.2847716889951 -999908.31553630508
 13608.086808308637 2394.1828741134259 -999904.53937452589
 13829.836870780253 2441.4833894219005 -999901.38252278988
 13964.525434687095 2554.6248634039212 -999899.22788308572
 13979.791191410195 2746.1115281347425 -999898.50700444565
 13834.428248131495 3033.6949084994449 -999899.6976148407
 13474.419137313816 3441.666616176366 -999903.29280376644
 12827.704486752124 4001.8431764586762 -999909.71354857413
 11797.099543225984 4753.5930494388795 -999919.11262636026
 10250.925144251294 5741.8635845202689 -999930.97238572617
 8012.2805571872823 7011.6138392603871 -999943.3187094368
 4853.6650368883002 8595.7233078682839 -999951.27655127482
 523.76339925583363 10490.581479368313 -999944.83516448352
 -5096.2027713420448 12602.739683883314 -999907.59556559694
 -11398.920391405749 14571.333901980335 -999828.85577594116
 -16111.301508321594 15117.409381415609 -999755.91515994677
 -0 -0 0
 0 0 -0
 37559.471947470687 15005.183707546756 -999181.73048196302
 32010.192642391736 13652.687855332044 -999394.29239981261
 26015.216003017209 11732.841340128625 -999592.69153510907
 21197.220696172451 9929.3723255872428 -999726.00516340369
 17668.053965605999 8403.6197009517036 -999808.59120383137
 15186.768577789115 7156.2373720552705 -999859.06523211522
 13495.8135200425 6150.9052450581266 -999890.00864199968
 12390.721325048209 5344.5845329506628 -999908.94857542648
 11720.132112568472 4696.7146204559722 -999920.28651039896
 11372.879346358473 4172.6864549659931 -999926.62045928231
 11266.067846343849 3744.9301979061652 -999929.52312305197
 11336.482652809849 3392.7134014190428 -999929.98437732551
 11534.810993096151 3101.258790952013 -999928.66262012161
 11821.767692224916 2860.594053467375 -999926.02866926719
 12165.374429902613 2664.4389059165046 -999922.44920808566
 12538.919252621301 2509.2952309733664 -999918.23612804466
 12919.297077615547 2393.828865566973 -999913.67694735655
 13285.560192258754 2318.5301235654333 -999909.05501872732
 13617.513848933157 2285.6342940883446 -999904.66505184758
 13894.211091235817 2299.263214599117 -999900.82722579141
 14092.16701009311 2365.8023590106618 -999897.90169204655
 14183.11951663833 2494.5018928938243 -999896.30291399872
 14131.088584394238 2698.2896064824781 -999896.51042926405
 13888.389387702771 2994.6875158763555 -999899.06714972877
 13390.049551305103 3406.6809138492372 -999904.54599334858
 12545.931826208836 3963.2726260724539 -999913.44228623307
 11229.933719242023 4699.3824084026319 -999925.89945137466
 9266.8033099887689 5654.4728791009738 -999941.07491035364
 6421.8070751473315 6868.3608240243921 -999955.79202956823
 2414.4503566918056 8368.6172269884337 -999962.06761815865
 -2972.5509208823505 10126.784945857526 -999944.30453284911
 -9481.6698965938831 11904.871511208999 -999884.17927791702
 -15190.809765280543 12961.186220011048 -999800.60359575937
 0 0 0
 -0 -0 0
 35943.140580129257 13125.67245715191 -999267.63550501538
 30136.312330743214 11611.243854580649 -999478.3547907644
 24275.375693702747 9944.6545313616607 -999655.84576952353
 19725.891340950104 8493.5381163916391 -999769.34791034216
 16458.608010659693 7305.6245163929852 -999837.85789135692
 14200.808610717162 6347.6557640856045 -999879.01483184565
 12693.061741223855 5575.2576736463761 -999903.89672483329
 11735.412373848212 4948.9667540869305 -999918.89062287589
 11182.342351776753 4436.5357731742079 -999927.63356648001
 10928.642996399571 4012.555515352934 -999932.22978384572
 10896.99347324814 3657.6581409435544 -999933.93635288114
 11029.043579330522 3357.6449861954557 -999933.54100053688
 11279.47129006115 3102.5774250885888 -999931.57142913435
 11612.0908594668 2885.8972187060735 -999928.4129092017
 11997.258562999963 2703.6373031573448 -999924.37520659808
 12410.03249773648 2553.7942248309228 -999919.73139270628
 12828.754858504688 2435.8808101544869 -999914.7411321922
 13233.821303435216 2350.6756674904072 -999909.66606869805
 13606.485095038644 2300.1437779837793 -999904.78191773791
 13927.536659962303 2287.5319775238654 -999900.39049899217
 14175.714342352901 2317.6209598023479 -999896.83355632774
 14325.642301358061 2397.1498223524977 -999894.50925854326
 14345.042323710517 2535.3885879057138 -999893.89015306975
 14190.818830552776 2744.852311180487 -999895.537767175
 13803.470805293076 3042.1073812387158 -999900.09989818884
 13099.11317033637 3448.6614880199427 -999908.25577554456
 11958.489128474372 3991.9111964636118 -999920.52643335774
 10213.275099361868 4706.0819774955708 -999936.76890299702
 7633.621498884756 5632.4602683938547 -999955.0005945951
 3932.4924334200837 6815.5075776158437 -999969.04170065233
 -1161.0201812132952 8281.8156754085976 -999965.03116921906
 -7579.2869694881319 9963.0997981964247 -999921.64245577028
 -13664.979268919898 11459.392626113096 -999840.96268467652
 -0 0 -0
 41163.130003806902 13228.86332981962 -999064.85970796226
 35548.684028378884 11882.937536546769 -999297.29653359565
 28724.192570393148 10096.151826255407 -999536.38677112712
 22914.485657585086 8603.9198245658081 -999700.40457664151
 18584.333634055231 7433.2689329108052 -999799.66446101048
 15527.365514259745 6514.6184613794321 -999858.22028250061
 13441.258058034213 5784.7362056281581 -999892.9289723218
 12068.869941707751 5195.5640654341241 -999913.67051979655
 11217.56032083484 4711.9342396208813 -999925.97926855064
 10748.569957471431 4308.235498394426 -999932.95142762433
 10562.206539536477 3965.831148185021 -999936.35396275111
 10585.572018145303 3671.3084224087124 -999937.23160982283
 10763.827781664681 3415.2625357973429 -999936.23596372292
 11054.372581958261 3191.3896755314067 -999933.80574853963
 11423.072305432292 2995.7577754351414 -999930.26699588203
 11841.795115229774 2826.2229521634258 -999925.88942994829
 12286.732977249389 2681.9719781462018 -999920.91848258395
 12737.14109132339 2563.2039595453598 -999915.5940489585
 13174.270075311313 2470.9355785886951 -999910.16250728699
 13580.30880794175 2406.938273636782 -999904.8864071162
 13937.206814859417 2373.7877807930713 -999900.05470435461
 14225.212773031735 2375.0406013422576 -999895.99584341957
 14420.951185318261 2415.5245785490215 -999893.09498962015
 14494.758317024338 2501.7664088350084 -999891.81572116411
 14406.904695496165 2642.5521185041111 -999892.72325354756
 14102.158805006922 2849.6694348644614 -999896.49889433559
 13502.042559057723 3138.8873033627697 -999903.91650059551
 12494.178811281561 3531.3241327639826 -999915.70907037007
 10918.908479039239 4055.3648529915076 -999932.16342586745
 8556.1153315099091 4749.1761604580252 -999952.11796177062
 5123.738707881429 5663.0143399247709 -999970.83835991914
 325.03388793271819 6857.3690000093393 -999976.4351440334
 -5939.4487760066477 8377.1170802303914 -999947.2720387117
 -12882.706659166384 10076.700165108792 -999866.23904546152
 -17972.573917534079 10908.519155248623 -999778.9709713934
 40433.001088588404 10796.191187920718 -999123.92358445912
 34261.635045383817 9879.8006771954915 -999364.06274320069
 27414.235210445753 8596.4021785035293 -999587.19558496319
 21823.635137367964 7481.4757332563195 -999733.84281529835
 17708.320089190405 6608.195731303329 -999821.35761784739
 14821.719003406535 5928.7054268245111 -999872.57543036249
 12864.418569976726 5389.7226922756863 -999902.72408077633
 11589.118163525809 4951.0843006768464 -999920.58639895974
 10812.071661785643 4584.7621577173486 -999931.03715323156
 10401.211015449142 4271.5154284836835 -999936.78248445084
 10261.665643102873 3998.1944876351163 -999939.35449059529
 10324.018677995906 3755.9150082162491 -999939.65204945614
 10535.955477611997 3538.8583379913152 -999938.23315434705
 10856.698602155882 3343.4457273723033 -999935.47465130489
 11253.405830980546 3167.7439579425127 -999931.66079258628
 11698.851126700012 3011.012996300014 -999927.03267941077
 12169.867534932591 2873.3725597958201 -999921.81597078615
 12646.212517416989 2755.5607367643656 -999916.23658884072
 13109.605279470907 2658.7909163079221 -999910.53053774731
 13542.77855809074 2584.6887588753607 -999904.95174938801
 13928.391282857441 2535.3215864693257 -999899.78100843937
 14247.66839515701 2513.3059031891521 -999895.3381423169
 14478.570487552106 2522.0144609430736 -999891.99938778172
 14593.247394454025 2565.8787991647555 -999890.22067248588
 14554.395874403423 2650.8287979866172 -999890.56534573564
 14310.030403852417 2784.8989202815319 -999893.72803705744
 13786.040633686785 2979.0993790509992 -999900.5300781352
 12875.986597721505 3248.6502919256204 -999911.82373268099
 11428.192281030408 3614.689275853289 -999928.16264101025
 9232.5089614966873 4106.2583415697773 -999948.94840722135
 6016.0171372953364 4761.2251818207924 -999970.56870318518
 1476.6220718935531 5620.1598870122616 -999983.1165525252
 -4563.33651624299 6689.6466387606133 -999967.21175630938
 -11679.895643625778 7802.3292202855573 -999901.34698203718
 -17671.864155745694 8387.7549109987685 -999808.65708635154
 39729.355819225071 8339.484380573922 -999175.67588810693
 33289.841473773973 7901.3096200417995 -999414.50647913828
 26467.777721256589 7189.9848121653695 -999623.80967086763
 21037.604409375061 6501.2309367621165 -999757.54720683233
 17078.145112672599 5930.2812270248833 -999836.57100752171
 14311.96119621391 5473.3015926096787 -999882.5984766382
 12442.645298167605 5103.3195287890812 -999909.5642645742
 11231.540622498325 4795.1948512014114 -999925.42652018997
 10502.446827690979 4530.3692527072944 -999934.58504297468
 10128.788428586597 4296.1881750041985 -999939.47337433079
 10019.484174051611 4084.3692222508462 -999941.46221913514
 10107.686913096688 3889.7201810026086 -999941.35065121693
 10342.814212779433 3709.2201462881862 -999939.63211789273
 10685.23349095813 3541.3840345599187 -999936.64018494869
 11102.839235918736 3385.8049398688909 -999932.62937350443
 11568.856222838607 3242.8225785751938 -999927.82022874965
 12060.392316583257 3113.2725443233376 -999922.42422661709
 12557.387629491333 2998.3123107255014 -999916.65759662702
 13041.737907454524 2899.3034596237853 -999910.74957308185
 13496.411869631549 2817.7603212978465 -999904.94902936497
 13904.43684745294 2755.3495980059079 -999899.53229539434
 14247.597883684111 2713.9575648872133 -999894.8146624628
 14504.684337364053 2695.8144577133353 -999891.16743607807
 14649.02301887433 2703.7038012087933 -999889.04189932381
 14644.95781770854 2741.2614047207862 -999888.99918762408
 14442.782906314778 2813.4167384777293 -999891.73949392
 13971.543257103127 2927.0072303821316 -999898.10911296762
 13129.106849883725 3091.614451076357 -999909.03009894362
 11769.398466690147 3320.5096360273069 -999925.22494208999
 9688.4483251448073 3631.157247624943 -999946.47290047188
 6616.3387222101319 4043.2606065306391 -999969.93760091648
 2237.5149642355836 4568.5727000812967 -999987.06075142242
 -3693.6969580342152 5179.2227923887249 -999979.76592231542
 -10933.700959775271 5742.8160909120897 -999923.73421509902
 -17347.863600215478 6006.3801896066434 -999831.47331214091
 39333.089785732896 6399.4530434522712 -999205.66203792708
 32769.579342654193 6263.1106569677977 -999443.30910492572
 25932.426226852171 5969.1839360579152 -999645.87635478494
 20566.088504021707 5643.0918333118016 -999772.56989687693
 16683.930354319626 5347.8299880859295 -999846.51181186351
 13981.963889306056 5096.1323432179761 -999889.26092889835
 12160.109505438031 4881.0389335361797 -999914.14991275384
 10983.110065395034 4691.9215662878305 -999928.67603909981
 10279.026773115842 4519.8866547185735 -999936.95412922208
 9924.7303052174248 4358.7680870989279 -999941.24870870868
 9831.576335630667 4204.7816506884419 -999942.82832471293
 9934.33541790048 4055.9389985270823 -999942.42751202651
 10183.43963011871 3911.5393341520075 -999940.49693836144
 10539.850312348841 3771.7759197360942 -999937.3406678061
 10971.761176208709 3637.4458884839287 -999933.19249042845
 11452.506044068059 3509.7256130862597 -999928.25839228637
 11959.183932720804 3390.0043686749141 -999922.73991046112
 12471.679077578379 3279.7543544874056 -999916.8467589491
 12971.833295707684 3180.4452542504769 -999910.80417651916
 13442.61745138918 3093.4882980515104 -999904.8586571652
 13867.153500654325 3020.2237688077976 -999899.28507934022
 14227.460648901384 2961.9383039305371 -999894.3975665468
 14502.739205761551 2919.9305029276475 -999890.56629282574
 14666.963258029047 2895.6153555907208 -999888.24155527493
 14685.427470794852 2890.695938964318 -999887.98477478884
 14509.787802144279 2907.4032379189744 -999890.50053710828
 14070.981390679053 2948.837433751874 -999896.65057969477
 13269.388053273029 3019.3758663113435 -999907.39906756848
 11961.872139303465 3125.0142395542643 -999923.57102976902
 9946.7214742110464 3273.0903293925435 -999945.17330282158
 6951.9891833273987 3469.9614212016991 -999969.8141514723
 2646.9438497103411 3713.5828365822999 -999989.6014413212
 -3256.8814714472724 3977.3289478626966 -999986.78670146503
 -10581.373010970205 4190.661619282313 -999935.23435290332
 -17166.257772870777 4260.5334981875785 -999843.57148925355
 39278.823826006461 4810.0904166991077 -999216.71174426854
 32645.085116303588 4877.0798208027381 -999455.10780133132
 25762.520152902533 4891.6131284685325 -999656.12321256381
 20386.735648234055 4865.013449100119 -999780.33219990309
 16512.440422687887 4816.0030207355867 -999852.06177023589
 13821.547518315941 4755.427611754154 -999893.16965985356