# OOMMF OVF 2.0
#
# Segment count: 1
#
# Begin: Segment
# Begin: Header
#
# Title: Oxs_TimeDriver::Magnetization
# Desc: Oxs vector field output
# Desc:  MIF source file: /mnt/gpfs/work/plgrid/groups/plggspinsym/MF/switching-obrazki/p-ap/Anisotropy.mif
# Desc:  Iteration: 8500, State id: 59615
# Desc:  Stage: 0, Stage iteration: 8500
# Desc:  Stage simulation time: 1.25076e-09 s
# Desc:  Total simulation time: 1.25076e-09 s
# meshunit: m
# meshtype: rectangular
# xbase: 1.0000000000000001e-09
# ybase: 1.0000000000000001e-09
# zbase: 3.4999999999999998e-10
# xnodes: 35
# ynodes: 35
# znodes: 5
# xstepsize: 2.0000000000000001e-09
# ystepsize: 2.0000000000000001e-09
# zstepsize: 6.9999999999999996e-10
# xmin: 0
# ymin: 0
# zmin: 0
# xmax: 7.0000000000000005e-08
# ymax: 7.0000000000000005e-08
# zmax: 3.4999999999999999e-09
# valuedim: 3
# valuelabels: Magnetization_x Magnetization_y Magnetization_z
# valueunits: A/m A/m A/m
#
# End: Header
#
# Begin: Data Text
 -0 0 -0
 0 0 -0
 -0 -0 0
 -0 0 0
 0 0 0
 -0 0 -0
 0 0 0
 0 -0 0
 -0 0 0
 0 0 0
 0 0 0
 -0 -0 0
 0 0 0
 17901.591155407437 -18019.118092907433 -999677.37016362359
 18901.813882970357 -19238.8731656413 -999636.22743038367
 19448.006675181507 -20284.59853541174 -999605.07706724817
 19818.113820068585 -21001.072630928262 -999583.01171686838
 20269.233232343751 -21460.630415778644 -999564.20480443898
 20986.692646542 -21736.431176294107 -999543.4389217298
 22090.278847271551 -21849.651990988626 -999517.18959121581
 23513.780268121736 -21746.834603577059 -999486.95705458184
 24570.005813408716 -21362.697043066306 -999469.83445693599
 0 0 0
 -0 0 -0
 -0 0 -0
 -0 0 0
 0 -0 0
 -0 0 0
 -0 -0 0
 0 0 0
 0 -0 0
 0 -0 -0
 0 -0 0
 -0 -0 0
 0 0 -0
 -0 -0 -0
 -0 -0 -0
 -0 -0 -0
 -0 0 -0
 0 0 -0
 0 0 -0
 -0 -0 0
 0 0 0
 0 0 -0
 0 0 0
 15849.092652786338 -16305.52356852489 -999741.43465360091
 15873.50443081002 -17109.432268886107 -999727.61249478441
 15821.936267211273 -17333.652542491076 -999724.56747960963
 17112.258026724925 -17605.287384678202 -999698.56680968066
 18475.408538694948 -18338.357218031968 -999661.12454865035
 19304.806442354424 -19126.469096461577 -999630.68311658246
 19836.914847162465 -19738.525760632889 -999608.36701687484
 20362.428039266913 -20182.003477539572 -999588.94464673731
 21098.688486105159 -20532.528149429629 -999566.5363706206
 22191.46718907481 -20886.320961278692 -999535.54232988553
 23630.107981664412 -21371.162406812975 -999492.31683598086
 24947.990664323184 -22127.342476807655 -999443.8345783751
 25500.761289845541 -23080.70477560976 -999408.32107837638
 25970.810161584803 -23008.32275669845 -999397.88578097068
 26670.371231563528 -22268.290991649366 -999396.22498520673
 -0 0 -0
 0 -0 0
 -0 0 -0
 0 -0 -0
 -0 0 0
 -0 0 0
 -0 0 -0
 -0 0 0
 -0 0 -0
 -0 0 0
 0 -0 -0
 -0 0 -0
 -0 0 0
 -0 0 0
 -0 -0 0
 0 0 -0
 0 -0 -0
 -0 -0 0
 14878.112227600688 -14548.488085941666 -999783.46819246619
 14836.510078280429 -15296.163514577824 -999772.92689411854
 15419.807457445773 -15847.493469735758 -999755.51335749193
 15975.656934397821 -16205.261484402479 -999741.05041542463
 16375.572186592964 -16113.39126832912 -999736.06479780213
 17282.819004149726 -15905.033315149843 -999724.12898884946
 18365.323693277991 -16049.485433074995 -999702.52020437317
 19190.753209653049 -16438.677882352073 -999680.69145138888
 19784.515187003322 -16863.909354470794 -999662.03364942258
 20332.667223650231 -17264.043614504481 -999644.20442557905
 21013.734911557221 -17682.698275711125 -999622.80142399552
 21946.048087006613 -18225.901733840135 -999593.0109196197
 23116.771397263747 -19036.801008058395 -999551.50697077438
 24273.680431365807 -20186.200746956245 -999501.52863200731
 25166.154883962703 -21392.370275688616 -999454.36671333027
 26216.947038067279 -22128.077461159799 -999411.33667568339
 27606.334706249421 -22575.769139464021 -999363.9101607824
 28792.377793145872 -22743.021768021466 -999326.65027100919
 29266.520208685866 -21881.375292062632 -999332.11506996129
 -0 0 -0
 -0 -0 -0
 0 0 -0
 -0 0 0
 -0 0 -0
 0 0 -0
 0 -0 -0
 -0 -0 -0
 -0 -0 0
 0 0 0
 0 0 0
 0 0 -0
 -0 0 0
 0 0 0
 -0 -0 -0
 13246.355399248967 -12879.664963425801 -999829.30958192376
 14231.460974264324 -13795.380715203171 -999803.55719984334
 14955.443224400386 -14253.630132592007 -999786.56159502629
 15690.887439656797 -14286.579117878717 -999774.81950110372
 16406.921913461629 -14162.883323217331 -999765.08523217519
 17023.399999041521 -13894.69774340655 -999758.54146243341
 17752.059599253011 -13612.609931313877 -999749.74930271541
 18535.434755267168 -13540.89678012542 -999736.50617191289
 19202.32378307965 -13688.243865953847 -999721.9127043261
 19734.326184253954 -13956.913145164201 -999707.83779337828
 20225.295850825041 -14294.248744485301 -999693.25888523285
 20790.861831891329 -14719.061391093766 -999675.49199530378
 21512.817362637557 -15302.404501062067 -999651.45681162679
 22396.115295358402 -16129.380798919959 -999619.05598819023
 23357.834047413147 -17215.753467734557 -999578.92605894397
 24367.005720980611 -18417.218743928817 -999533.41869390849
 25623.445268453965 -19564.187975746074 -999480.20570765913
 27210.467830822439 -20701.383209936124 -999415.35067939782
 28917.723437242366 -21662.581810916236 -999347.0357290766
 30544.347334360638 -22044.870919418852 -999290.28140579036
 31546.903119689996 -21855.456190973946 -999263.29460169876
 -0 -0 -0
 0 -0 0
 -0 0 -0
 -0 -0 -0
 0 -0 -0
 0 -0 -0
 0 0 -0
 0 -0 -0
 -0 0 -0
 0 0 -0
 -0 0 0
 -0 0 0
 -0 0 -0
 11894.743200927223 -11898.518923293599 -999858.46014904336
 12888.440563569593 -12351.489547711864 -999840.65170695703
 14182.368837966993 -12573.020821675082 -999820.3736479677
 15299.466260356407 -12564.781569988367 -999804.00709151314
 16214.402040100114 -12363.053500416729 -999792.10242661345
 16977.31005830643 -12080.021363932852 -999782.89844697341
 17616.303543809201 -11772.346079865689 -999775.51366155606
 18216.515311691219 -11510.776006819055 -999767.80334516661
 18786.885698369078 -11390.00629590021 -999758.63121172204
 19282.035266455452 -11432.244709180419 -999748.72187809914
 19698.549188864854 -11603.365422110077 -999738.6303783278
 20086.771258154055 -11876.393452381482 -999727.6993756782
 20517.222402179217 -12259.622697393763 -999714.33181495278
 21047.638209010471 -12791.871021910943 -999696.63646607392
 21702.84598951877 -13517.09426678087 -999673.08388219494
 22483.794750895213 -14444.168206074777 -999642.85871426796
 23427.228177425757 -15526.898608414491 -999604.96217232069
 24646.547802341909 -16723.497300361556 -999556.33774163621
 26223.628977609562 -18048.134960785799 -999493.16461278615
 28144.538818233839 -19448.515574826979 -999414.64877029124
 30282.840954533298 -20791.945546206054 -999325.09452336177
 32070.540776818027 -21823.564914201619 -999247.32295299054
 32643.787647411791 -22001.992647359079 -999224.84729292849
 0 -0 -0
 -0 0 -0
 0 0 0
 0 0 -0
 0 -0 0
 -0 0 0
 -0 0 0
 0 -0 0
 -0 -0 -0
 -0 -0 -0
 0 0 0
 11166.215520844889 -11929.480856069727 -999866.49264661665
 11894.784395171175 -11938.348107979227 -999857.9848901768
 13194.279748448293 -11718.420973264951 -999844.28267196333
 14610.098944526018 -11406.890780328602 -999828.19916801539
 15826.328067097173 -11081.735294990269 -999813.34382111754
 16784.81242535753 -10745.701614503107 -999801.38025942806
 17530.11614439022 -10419.686998929446 -999792.0409519216
 18117.444118141862 -10128.086400256294 -999784.56683652324
 18605.39397156602 -9904.2292392524341 -999777.84810343699
 19022.647271842045 -9787.0429425096445 -999771.15015448024
 19372.971715281459 -9791.0326385500175 -999764.38406596077
 19668.974994111908 -9906.5788981094283 -999757.46614727343
 19944.81130653316 -10123.305669971469 -999749.83029969002
 20246.871024837714 -10446.201919401266 -999740.43685306795
 20619.408795254731 -10896.000134595328 -999728.02159487398
 21096.838547540636 -11497.384047924777 -999711.3251150822
 21711.275301411002 -12263.272723976648 -999689.06799408549
 22515.574782268934 -13192.212839088335 -999659.44921889878
 23593.301249880795 -14290.904175105741 -999619.4907033327
 25024.808851824586 -15588.379146518679 -999565.28620071337
 26850.69383061356 -17104.66748771094 -999493.10682512925
 29014.40200824547 -18823.983084772542 -999401.73210622766
 31202.514639233377 -20597.901457958003 -999300.82034176111
 32754.93373130585 -21935.022459014068 -999222.68244169676
 33007.851527845763 -22226.857644506767 -999207.91056554718
 0 -0 0
 0 0 0
 0 -0 -0
 0 -0 0
 0 -0 -0
 -0 -0 0
 0 -0 -0
 0 -0 0
 0 0 -0
 11032.644620279074 -12601.764128394458 -999859.72830869374
 11441.825381605151 -12341.870216245894 -999858.37140642188
 12536.632897708423 -11777.522703345026 -999852.05045274587
 13936.256238302663 -11111.173374550275 -999841.14867727936
 15301.214168021575 -10512.785472275675 -999827.66224314785
 16450.231152120465 -10021.071325465373 -999814.46680098178
 17345.943563037865 -9617.3397738235089 -999803.2931620013
 18021.709845913902 -9285.2059313257469 -999794.48034335661
 18528.385905957024 -9020.764227794687 -999787.63981580944
 18914.677701599277 -8831.3771313970738 -999782.09713187383
 19214.52435215524 -8729.4936144941075 -999777.27419418516
 19448.884709959144 -8721.0141474179491 -999772.81659173907
 19638.417379191102 -8803.3770907055696 -999768.38973566226
 19811.280848519262 -8973.50491854352 -999763.46670630947
 20002.057259826648 -9235.3233570699649 -999757.28379835503
 20247.054849767246 -9601.1514208223562 -999748.90580650535
 20582.182486120873 -10087.532142214082 -999737.27321701252
 21047.241185273553 -10710.179222589228 -999721.11396104319
 21694.823431104378 -11484.976673097066 -999698.66957354301
 22593.041684296091 -12437.122902556057 -999667.38090294728
 23812.774324167985 -13606.790776034022 -999623.83276098582
 25405.388862198466 -15039.469824687269 -999564.09527561232
 27362.893234910309 -16763.066622923892 -999485.00322476588
 29544.822489855713 -18723.795574132186 -999388.07424510585
 31604.813896830743 -20665.207090657739 -999286.78814164631
 32953.727809736702 -22037.747671526195 -999213.88576270675
 33011.976506362953 -22242.828512561744 -999207.41890105279
 0 -0 0
 0 -0 0
 0 0 -0
 0 0 -0
 0 0 -0
 0 -0 0
 -0 0 -0
 11485.096283895742 -13430.43274812126 -999843.8458277114
 11532.357703484548 -13103.22905857021 -999847.6434507597
 12328.926089217386 -12369.127579391039 -999847.48950247979
 13553.266277444442 -11465.796141646955 -999842.4098286943
 14876.811300766336 -10616.445318043925 -999832.9718379617
 16090.298525243876 -9914.4372716823527 -999821.38716220413
 17094.993896523974 -9367.1988665626595 -999809.99033269915
 17872.615602060905 -8947.5621696334474 -999800.23541843658
 18448.624810359339 -8627.7019126628202 -999792.58399045584
 18863.399960835999 -8390.1893971437621 -999786.86571878789
 19157.012807147872 -8228.0750067178542 -999782.6301961795
 19361.991679504121 -8140.5958389051229 -999779.39765609824
 19503.508760172452 -8127.5356937375982 -999776.75323523546
 19604.483164440189 -8187.2552050751783 -999774.29107377143
 19689.96700960353 -8318.9959495529238 -999771.52365205518
 19788.294137340548 -8526.0065344708164 -999767.83836434176
 19930.375511397022 -8816.717382346158 -999762.49460888177
 20149.739556174023 -9203.8166449704986 -999754.60876906395
 20484.921225823025 -9703.2332453841809 -999743.07462815533
 20983.085257879582 -10335.640018557404 -999726.40491209773
 21700.773216092908 -11130.653030779591 -999702.54826369835
 22698.086996864135 -12129.343448139341 -999668.78308477742
 24026.051426446644 -13379.708079903872 -999621.7946126177
 25704.408999140556 -14921.228830516118 -999558.22256044298
 27686.684854791507 -16748.248611453251 -999476.33471243351
 29816.40468434888 -18746.161344168482 -999379.58926854096
 31766.237627338531 -20609.77719202634 -999282.81443798414
 32971.590033427092 -21771.442447511086 -999219.13439666596
 32879.234863523765 -21645.726119409999 -999224.90884462674
 0 0 0
 0 0 0
 -0 0 0
 0 -0 0
 -0 0 -0
 12141.898989641688 -13543.05241199607 -999834.56632599549
 12007.084173295614 -13560.687209319192 -999835.95539071609
 12500.497888461632 -12966.184448459746 -999837.79465140693
 13485.589279733049 -12054.353482928753 -999836.40233984648
 14669.076970099857 -11103.629345627824 -999830.74947522988
 15836.358412972939 -10260.686428284567 -999821.94818189321
 16865.798892361319 -9576.4714181098043 -999811.90032070549
 17704.801397747677 -9047.9616399230708 -999802.31765966071
 18347.45986812409 -8650.0779023552495 -999794.25226827082
 18814.34865256436 -8355.7786485849847 -999788.07816854655
 19136.698474066001 -8144.6133787832414 -999783.70262993511
 19346.685041975223 -8004.0724576704843 -999780.79627585318
 19472.755288335426 -7927.525290089322 -999778.95864248706
 19539.121938476928 -7911.3066545749743 -999777.79228231031
 19567.91333005362 -7953.182058100796 -999776.89694404241
 19581.640740627648 -8052.7246147841042 -999775.8313603024
 19604.641076938027 -8212.4829222389544 -999774.08106656617
 19663.684257777208 -8438.7615853481966 -999771.03720017604
 19788.70219427381 -8741.7870067139229 -999765.96682693448
 20014.23761346177 -9135.9880060642681 -999757.95271450805
 20381.117527722243 -9641.2705765193641 -999745.79566507379
 20936.718318992956 -10285.106799161329 -999727.89818238094
 21732.232068774101 -11103.494201700936 -999702.16690063349
 22816.185905146154 -12138.005300074359 -999665.98946251918
 24223.242201403056 -13425.920051225798 -999616.41603568627
 25957.056435486895 -14979.112015178007 -999550.82783440349
 27965.129971766022 -16748.251355514883 -999468.58258886484
 30094.922587347901 -18569.811775926464 -999374.53325821157
 32011.442487894317 -20090.08499573846 -999285.57281425199
 33097.811425645552 -20704.005161140947 -999237.64893498679
 32723.728048593235 -19875.937300372691 -999266.78356634756
 0 0 0
 -0 -0 -0
 0 -0 -0
 0 0 -0
 11934.737724219407 -13008.273416292604 -999844.16128623812
 12577.388309186143 -12969.391077540397 -999836.78878024779
 13500.572950141834 -12411.750616126621 -999831.82734730979
 14588.098990405482 -11610.024585255633 -999826.18224218138
 15690.983522817885 -10788.010867877783 -999818.68949205033
 16701.299907035067 -10058.228809508806 -999809.93124424957
 17559.67699957189 -9460.1496290026971 -999801.06186814338
 18244.318597547877 -8993.5793958978174 -999793.10878229246
 18758.943215335632 -8641.0535685302875 -999786.69437168946
 19122.144046936253 -8381.4926032882468 -999782.02333748213
 19358.969459022337 -8196.9112777807259 -999778.99605212209
 19495.363473587415 -8074.445643639936 -999777.34227705945
 19555.330798581566 -8005.8454328994467 -999776.72281177982
 19560.415564031737 -7986.1075417498851 -999776.78120133094
 19530.696188594506 -8012.4933155814406 -999777.15109781176
 19486.259157476514 -8084.37310624161 -999777.43954118423
 19448.422580892391 -8203.6163291237717 -999777.20495030284
 19440.623153085864 -8375.0655039791181 -999775.93512207712
 19489.242492088237 -8606.946353114894 -999773.01919063588
 19624.605051123133 -8911.4136266361184 -999767.70381112141
 19881.940321861624 -9305.4745299065726 -999759.02926295751
 20301.707235170605 -9812.0477745416392 -999745.74987934204
 20928.613051575267 -10460.183480685544 -999726.251389493
 21808.940783286271 -11282.927238859294 -999698.48737248452
 22985.784848739437 -12311.033033340293 -999659.98827628361
 24491.422234349611 -13560.336861524273 -999608.06694481045
 26334.276651541801 -15010.542879718461 -999540.48916274332
 28472.211589062026 -16572.40939107821 -999457.1968894928
 30752.505087390455 -18039.164257541266 -999364.23389259784
 32777.516648742923 -19035.955847614016 -999281.37518284051
 33665.336122897337 -19132.682108666224 -999250.01156820683
 -0 0 -0
 -0 -0 -0
 0 0 -0
 11648.885288329704 -12765.299009763738 -999850.66415576811
 12071.548166607892 -12745.05531808261 -999845.9087728468
 13138.563542024882 -12425.919601544634 -999836.47396467207
 14343.269981797579 -11899.479507712051 -999826.321414712
 15497.185811006937 -11256.10256793955 -999816.55186685093
 16534.095903748359 -10607.107707519854 -999807.03785216797
 17419.705916394847 -10024.152975703715 -999798.01470242266
 18140.008353431687 -9537.6799897821074 -999789.96432118188
 18696.607999077703 -9151.305576522007 -999783.32175305544
 19102.042481926786 -8855.1282786017582 -999778.32476813975
 19375.287955157739 -8634.8385066362189 -999774.99357636401
 19537.975993753087 -8476.8208858657235 -999773.17977716157
 19611.740917597293 -8370.2854633305633 -999772.63312187325
 19616.851658187574 -8307.5911457491275 -999773.05577834789
 19572.013396313723 -8283.7797051187536 -999774.13213455956
 19495.008391378964 -8296.0658904192042 -999775.53477696271
 19403.687526426125 -8343.6475539578751 -999776.91534455423
 19316.947447390263 -8427.829896965688 -999777.88894561108
 19255.553351980594 -8552.3226049258628 -999778.01608315541
 19242.886636890347 -8723.6195625896071 -999776.77997421357
 19305.695404361235 -8951.493874113994 -999773.55480247398
 19474.824687355696 -9249.6165447366147 -999767.56088461494
 19785.737441384685 -9636.1065797461306 -999757.8056929009
 20278.646055690733 -10133.475266022093 -999743.01157506509
 20998.132894754199 -10767.161488395483 -999721.53455270571
 21992.129468260177 -11561.672122154481 -999691.28933845914
 23309.629613332683 -12533.244431709045 -999649.72813046072
 24994.799956088304 -13677.935530721674 -999594.0046112584
 27069.994288409001 -14954.123239368602 -999521.68040886801
 29486.179800550908 -16259.283956821906 -999432.93966427841
 31978.850741950755 -17403.357480571922 -999337.01835448272
 33701.44296301197 -18051.399005254476 -999268.91262370604
 33387.734597562747 -17598.597307755455 -999287.5204620749
 -0 -0 0
 0 0 -0
 11474.73286618392 -12190.609501563542 -999859.84995179716
 12407.498526017731 -12274.671976169922 -999847.68160365534
 13703.62700426901 -12015.877083325313 -999833.90085796092
 15028.963750991777 -11589.708294723305 -999819.8882349832
 16206.058355710398 -11098.132685611159 -999807.07895246649
 17190.990394728036 -10608.816549388781 -999795.94061021763
 17984.866012961542 -10165.423873565303 -999786.58160227712
 18601.560431188565 -9788.9964232049024 -999779.05434078374
 19059.233836627966 -9484.0694031512758 -999773.37333673623
 19377.88352225368 -9245.6905196024563 -999769.48084896733
 19578.07433618297 -9064.9418005459138 -999767.23582813994
 19679.916636550537 -8932.4492028225286 -999766.42883846501
 19702.349377177936 -8840.166076424206 -999766.80725695263
 19662.873644800446 -8781.9807212708456 -999768.0972178696
 19577.789495732082 -8753.7030244080725 -999770.01497435465
 19462.816065174378 -8752.8814701560623 -999772.26699723105
 19333.900721441372 -8778.7065036904678 -999774.54188182624
 19208.015259437423 -8832.081746948752 -999776.49826439121
 19103.861641203552 -8915.8303806128824 -999777.7505220935
 19042.491135748645 -9035.0014085658495 -999777.85146546038
 19047.914729344629 -9197.248318305652 -999776.26875608263
 19147.745277062724 -9413.2446056769459 -999772.35142646276
 19373.909439570532 -9696.9922556103757 -999765.28244094481
 19763.445714465826 -10065.748960202993 -999754.01320092811
 20359.4483830971 -10539.162585644117 -999737.17491825274
 21212.090210145649 -11137.148064063058 -999712.96438623639
 22379.156353332597 -11876.00771067124 -999679.0153853232
 23923.769238242407 -12762.266929681991 -999632.3213103161
 25902.068952334554 -13783.271185543425 -999569.45944712311
 28320.454690081689 -14891.364184191058 -999487.96847129718
 31012.223059979235 -15968.23966715373 -999391.44350089913
 33364.787916095993 -16731.677643469138 -999303.17816493951
 34138.645648911275 -16724.13752973171 -999277.16680465802
 0 0 0
 -0 -0 0
 11096.266177305202 -11979.024027507143 -999866.67904289661
 12518.653176597036 -12043.832534434858 -999849.10332535987
 14115.597061071579 -11857.461442942938 -999830.06082420761
 15551.504963387506 -11531.728368433613 -999812.56740161579
 16741.324905398313 -11163.584772937702 -999797.53071080823
 17685.97604649825 -10803.260110663598 -999785.22484694899
 18413.162062655058 -10476.893557716638 -999775.56989768194
 18954.503905530877 -10196.637871437144 -999768.35084824229
 19339.002036542515 -9965.422389175983 -999763.31866939168
 19592.089996464005 -9780.5544087418439 -999760.21663448261
 19736.016480205129 -9636.6260425499986 -999758.78345329314
 19790.345057351955 -9527.5687327902579 -999758.75473863841
 19772.399448514938 -9447.8638040360875 -999759.86621267651
 19697.761020752263 -9393.0916128812678 -999761.85566399817
 19580.885518820134 -9360.0830297260036 -999764.46114471136
 19435.838725636233 -9346.9118721950945 -999767.41465777147
 19277.057115908778 -9352.8987526685069 -999770.43282639282
 19120.053277612398 -9378.6951246893386 -999773.20610247389
 18982.007665779387 -9426.460117345041 -999775.38739190425
 18882.280857235291 -9500.1038947700799 -999776.57878928981
 18842.91037051344 -9605.5762952497062 -999776.31379864435
 18889.211298444348 -9751.1535108054122 -999774.03081983072
 19050.58713303104 -9947.6504641646588 -999769.03301719145
 19361.6910181561 -10208.422125171086 -999760.42782190163
 19864.030668298365 -10548.991875221553 -999747.03753300803
 20607.988426281896 -10986.125737309534 -999727.2707365274
 21654.6775912946 -11536.190264824651 -999698.95031083783
 23075.590301148051 -12212.501426525847 -999659.12787367729
 24944.16320903349 -13020.628168619576 -999604.04759279347
 27304.481629295358 -13947.638811207928 -999529.85380855296
 30083.267330665967 -14933.280552758022 -999435.83793990698
 32872.928259135886 -15805.041507666956 -999334.56422291871
 34476.238650026076 -16227.276883986144 -999273.76852065779
 -0 0 -0
 10369.53688764369 -13573.781258480534 -999854.10194041929
 11116.267250485476 -12914.433780418318 -999854.81246156304
 12762.50821089561 -12412.968393601639 -999841.50573969772
 14489.501640449538 -12044.266237165946 -999822.47923969978
 15966.573592443581 -11727.132086475454 -999803.75219377107
 17145.260977856262 -11438.017531295871 -999787.58333005651
 18051.753341043175 -11175.723672130853 -999774.59329676814
 18728.086358933211 -10943.410735302465 -999764.72259367618
 19214.896803948755 -10743.296951373972 -999757.65529023495
 19546.88750903284 -10575.319851797469 -999753.01039743866
 19752.588889575476 -10437.365984249507 -999750.41716593958
 19855.350986755195 -10326.089322294276 -999749.53709241631
 19874.48539508941 -10237.759441898459 -999750.06532227353
 19826.307670458824 -10168.88001280151 -999751.72488145367
 19725.080493634345 -10116.539312689803 -999754.25822141627
 19583.917337595925 -10078.563900337011 -999757.41694244067
 19415.640512021535 -10053.588360872178 -999760.9505599715
 19233.566682177792 -10041.125279571443 -999764.59515017946
 19052.160230304406 -10041.685692539057 -999768.06297211302
 18887.551237450352 -10056.95076676172 -999771.03286178864
 18757.945229148405 -10089.984060954583 -999773.14012351306
 18684.034021735653 -10145.454972336796 -999773.96276162274
 18689.533725867979 -10229.852558126309 -999772.99995836499
 18802.025600488119 -10351.649805041974 -999769.63705627318
 19054.248650482226 -10521.383262036048 -999763.08998813259
 19485.969146097341 -10751.602556435579 -999752.31935160095
 20146.343807623663 -11056.679069916669 -999735.90246581135
 21096.206244556786 -11452.477350056628 -999711.85390823183
 22408.388131514261 -11955.864625432754 -999677.40868862579
 24161.164398820358 -12583.68976795526 -999628.87557668961
 26412.866633031619 -13349.809087285037 -999561.97560409352
 29128.817045298747 -14256.204350024347 -999473.99798847793
 31988.243473630981 -15265.540502828591 -999371.66037096945
 33950.153068121137 -16183.919731216072 -999292.48363468889
 33476.698631772124 -16435.726402065495 -999304.34680649394
 10450.943151556257 -13372.653895458769 -999855.96458441718
 11588.70509481897 -13106.128028936771 -999846.95394961047
 13219.80632402373 -12682.254618110261 -999832.18448825541
 14878.988289258541 -12338.94958505351 -999813.16556175915
 16308.068150662162 -12080.314146427556 -999794.03525091975
 17446.523398480287 -11872.735233643409 -999777.30369286635
 18313.529870444821 -11696.728935080704 -999763.872699901
 18950.143521429723 -11544.133444398467 -999753.78221016773
 19398.271965849086 -11411.685652957523 -999746.70815927035
 19694.22499912537 -11297.553824835421 -999742.2181638917
 19867.650402121086 -11199.990288920835 -999739.88451248
 19942.28203923977 -11117.040143789161 -999739.32442687731
 19937.16604279479 -11046.65576850678 -999740.20665696659
 19867.909052440809 -10986.893247691401 -999742.2439642367
 19747.853117895178 -10936.066231505067 -999745.17990966782
 19589.151188248736 -10892.852284148259 -999748.77390514431
 19403.737113724685 -10856.384350363371 -999752.78639514605
 19204.141330495018 -10826.368392491766 -999756.96581878758
 19004.131110079165 -10803.237565690615 -999761.03797800094
 18819.163777358513 -10788.340040170518 -999764.69771336636
 18666.721814587465 -10784.134142368739 -999767.60096909327
 18566.631358671042 -10794.374911541316 -999769.35423639603
 18541.537055302375 -10824.271611744352 -999769.49670796725
 18617.702146149855 -10880.617124292972 -999767.4696337101
 18826.317693266308 -10971.887727278727 -999762.56553334324
 19205.406640798446 -11108.336948066262 -999753.84830767708
 19802.231501980958 -11302.108563827638 -999740.03319340618
 20675.581709480852 -11567.407100955112 -999719.31831586407
 21896.153406436773 -11920.679028480472 -999689.17963410099
 23540.510197711614 -12380.463831883786 -999646.22166791523
 25668.113865237185 -12965.521832190216 -999586.43606954778
 28257.883455034418 -13686.134780003613 -999506.96932909137
 31058.869654707371 -14509.268409798169 -999412.24114275503
 33329.612299398395 -15244.801958349841 -999328.1407812062
 33839.17752207187 -15451.526596083808 -999307.84065295919
 10314.58057996042 -12753.64168831192 -999865.46797614021
 11783.956186194055 -12843.753492960735 -999848.07664605416
 13514.000660003214 -12768.104666851739 -999827.15870763268
 15150.636684007724 -12642.998440929547 -999805.28744275623
 16540.942138697686 -12526.179049252843 -999784.72286367253
 17645.428248952514 -12425.716938310296 -999767.09308742499
 18482.986272045673 -12337.668853163528 -999753.05008073733
 19092.954584716175 -12258.29110154752 -999742.56355548638
 19516.686877323173 -12185.518108887614 -999735.27100015362
 19790.612530950319 -12118.273068906999 -999730.70329638151
 19944.584223355345 -12055.835535881566 -999728.39831110602
 20002.330856458164 -11997.539502360562 -999727.94589638128
 19982.603287449572 -11942.686497643528 -999728.99718127388
 19900.482408145101 -11890.549351166525 -999731.25670654629
 19768.655444013242 -11840.410930520884 -999734.46721163543
 19598.605528186883 -11791.627013853713 -999738.39187745366
 19401.65433647827 -11743.730747078273 -999742.79722193943
 19189.82009110623 -11696.583524203676 -999747.4384757044
 18976.444379962453 -11650.568698849922 -999752.04866391106
 18776.608433904195 -11606.798904627503 -999756.33091014088
 18607.393855783186 -11567.312325588809 -999759.95227827481
 18488.129169216365 -11535.229209868909 -999762.53558877599
 18440.782991255488 -11514.866542560487 -999763.64475368697
 18490.709616465796 -11511.814853325292 -999762.75774638786
 18667.907248957697 -11533.008026951258 -999759.22049501236
 19008.8959489874 -11586.810869643321 -999752.17313525837
 19559.095853687289 -11683.148485845977 -999740.43921952252
 20375.150844424534 -11833.623597342856 -999722.37075131189
 21525.584427425092 -12051.38238658465 -999695.66038751521
 23085.960432968539 -12349.943413692945 -999657.19990833162
 25120.052615271565 -12738.867667923701 -999603.27340757777
 27629.768543050617 -13210.973323931272 -999530.9230204398
 30443.372029157057 -13710.929258825183 -999442.4503283588
 33002.160254660703 -14086.277945228312 -999356.00973435654
 34083.449673810828 -14133.052458466378 -999319.05580076843
 9894.8587469427148 -12398.67109861439 -999874.17444664822
 11602.345338467994 -12710.568681255956 -999851.90254679497
 13512.013295529721 -12918.827071607422 -999825.24943301734
 15222.934554588915 -13020.310206176096 -999799.34676197986
 16632.803406408708 -13063.328835384535 -999776.32462995558
 17735.945885884237 -13078.174784150409 -999757.16930054978
 18565.196188291582 -13077.968379952117 -999742.11686491582
 19164.995067262716 -13067.739953581808 -999730.932369594
 19578.614384944602 -13049.564753792116 -999723.15503768437
 19843.269356170167 -13024.584214401224 -999718.26274570986
 19989.120769668491 -12993.633990514709 -999715.75986706128
 20039.912035451209 -12957.378599071282 -999715.21358107368
 20014.192343738734 -12916.301962899568 -999716.26037012658
 19926.682248580415 -12870.676625100163 -999718.59691504005
 19789.630391670911 -12820.556862161347 -999721.96327314177
 19614.072632155156 -12765.827801695383 -999726.12339346111
 19410.940826538765 -12706.323313228397 -999730.84614014416
 19191.946724913807 -12642.014102878298 -999735.88945297478
 18970.214425117967 -12573.23742205588 -999740.98878929322
 18760.659077181081 -12500.934317456924 -999745.84985994315
 18580.200019071413 -12426.849133884398 -999750.14357981214
 18447.934001534453 -12353.669035281706 -999753.49991507479
 18385.465511931456 -12285.091899925555 -999755.4956962826
 18417.581196024224 -12225.845254909515 -999755.63084720401
 18573.460311033883 -12181.683217563892 -999753.28614916874
 18888.511326381806 -12159.400787617747 -999747.65471710882
 19406.778381535838 -12166.85965562715 -999737.63782252907
 20183.457862331081 -12212.928303381426 -999721.69747934153
 21286.269189753584 -12306.967045473761 -999697.67095163476
 22792.619507492149 -12456.938582431429 -999662.60367042839
 24775.71654207935 -12664.199765959242 -999612.81600133271
 27264.601039515754 -12912.015521914924 -999544.85711513611
 30144.704789976451 -13147.205757393316 -999459.07757841574
 32922.419351542478 -13271.692998401189 -999369.78965195722