# OOMMF OVF 2.0
#
# Segment count: 1
#
# Begin: Segment
# Begin: Header
#
# Title: Oxs_TimeDriver::Magnetization
# Desc: Oxs vector field output
# Desc:  MIF source file: /mnt/gpfs/work/plgrid/groups/plggspinsym/MF/switching-obrazki/p-ap/Anisotropy.mif
# Desc:  Iteration: 37200, State id: 260550
# Desc:  Stage: 0, Stage iteration: 37200
# Desc:  Stage simulation time: 5.47707e-09 s
# Desc:  Total simulation time: 5.47707e-09 s
# meshunit: m
# meshtype: rectangular
# xbase: 1.0000000000000001e-09
# ybase: 1.0000000000000001e-09
# zbase: 3.4999999999999998e-10
# xnodes: 35
# ynodes: 35
# znodes: 5
# xstepsize: 2.0000000000000001e-09
# ystepsize: 2.0000000000000001e-09
# zstepsize: 6.9999999999999996e-10
# xmin: 0
# ymin: 0
# zmin: 0
# xmax: 7.0000000000000005e-08
# ymax: 7.0000000000000005e-08
# zmax: 3.4999999999999999e-09
# valuedim: 3
# valuelabels: Magnetization_x Magnetization_y Magnetization_z
# valueunits: A/m A/m A/m
#
# End: Header
#
# Begin: Data Text
 -0 0 -0
 0 0 -0
 -0 -0 0
 -0 0 0
 0 0 0
 -0 0 -0
 0 0 0
 0 -0 0
 -0 0 0
 0 0 0
 0 0 0
 -0 -0 0
 0 0 0
 24668.374293025547 35826.539188391616 -999053.51728499611
 22144.09116352407 35589.055077005673 -999121.14299781853
 19689.271102738101 35305.239739401375 -999182.60225565697
 17746.561951902466 35139.747260916251 -999224.82840516255
 16078.103472560462 35123.751449001626 -999253.62980220106
 14359.555452163555 35259.782684544356 -999275.01264279336
 12257.297135109595 35549.230931061327 -999292.75532606151
 9505.6766634377855 35958.891012456086 -999308.06074419548
 6517.4988659541368 36300.372727580208 -999319.67115051369
 0 0 0
 -0 0 -0
 -0 0 -0
 -0 0 0
 0 -0 0
 -0 0 0
 -0 -0 0
 0 0 0
 0 -0 0
 0 -0 -0
 0 -0 0
 -0 -0 0
 0 0 -0
 -0 -0 -0
 -0 -0 -0
 -0 -0 -0
 -0 0 -0
 0 0 -0
 0 0 -0
 -0 -0 0
 0 0 0
 0 0 -0
 0 0 0
 30002.597510795316 33468.846101171162 -998989.32951421535
 27925.006524501438 32507.856434325786 -999081.29463054787
 26257.995534082351 30985.888302479008 -999174.85576681653
 24384.798339096946 30550.524204116846 -999235.73148722784
 21912.916337440794 29621.575502775591 -999320.96263528941
 19695.034737242062 29036.595758508389 -999384.30131429189
 17904.780676185197 28769.962422175551 -999425.68912909378
 16340.963808679495 28741.020363528187 -999453.31389228301
 14736.8436034022 28924.94397286453 -999472.9476362908
 12824.762684772699 29357.506686381548 -999486.69939286239
 10409.672368092068 30131.495244950562 -999491.7366919514
 7722.4991273643827 31279.790086875404 -999480.83410306019
 5876.7571730232667 31910.226104657304 -999473.46197639417
 3865.9553889201393 33456.279223299221 -999432.70497290778
 1221.9485916609935 34438.629694322321 -999406.06743526261
 -0 0 -0
 0 -0 0
 -0 0 -0
 0 -0 -0
 -0 0 0
 -0 0 0
 -0 0 -0
 -0 0 0
 -0 0 -0
 -0 0 0
 0 -0 -0
 -0 0 -0
 -0 0 0
 -0 0 0
 -0 -0 0
 0 0 -0
 0 -0 -0
 -0 -0 0
 35135.739759142307 30686.491108828039 -998911.31691206992
 32658.90294221626 29460.359930121231 -999032.2733782921
 29799.301622523129 28562.401202601613 -999147.73225001676
 27094.939852386306 26830.891693434525 -999272.7192740381
 24998.886963804744 25082.455208192219 -999372.76633461437
 23105.613449290689 23709.886843949116 -999451.83570444211
 21157.404952206562 22615.825405939246 -999520.32928645145
 19399.343064227982 21962.4047963148 -999570.56692573696
 17900.198464146393 21670.528683305623 -999604.90749172005
 16545.168316919619 21648.640309223436 -999628.72796760243
 15161.761459166801 21866.586140173855 -999645.92401511315
 13580.672495401393 22362.551238722848 -999657.68222760537
 11700.758385497093 23232.051783793428 -999661.62476265896
 9622.2498600798481 24541.464894119759 -999652.50402751483
 7613.9901716805261 26085.689816580638 -999630.71378407476
 5252.63613727752 27944.714242234302 -999595.66963824374
 2169.4283915611272 29806.751072630585 -999553.32582656527
 -970.40084151024985 30833.039279498018 -999524.07775450603
 -4074.7282040604168 32038.181376799952 -999478.33969732944
 -0 0 -0
 -0 -0 -0
 0 0 -0
 -0 0 0
 -0 0 -0
 0 0 -0
 0 -0 -0
 -0 -0 -0
 -0 -0 0
 0 0 0
 0 0 0
 0 0 -0
 -0 0 0
 0 0 0
 -0 -0 -0
 37905.784942380131 27110.105435527315 -998913.50659162528
 34775.696700511828 26311.185314050916 -999048.73376946105
 31226.077649177467 24252.098627463925 -999218.07819254941
 28141.514032685634 22259.09100465606 -999356.08671563829
 25590.552044025033 20396.277936314367 -999464.41432020301
 23586.850155567387 18829.974756734573 -999544.44250888599
 21909.670519633783 17612.279992405402 -999604.80887758324
 20388.313492145924 16729.077813336971 -999652.16682027013
 19028.856746757869 16197.032518431457 -999687.73061817081
 17823.718730037202 15963.48370893368 -999713.7001354472
 16701.31484079779 15970.073473050823 -999732.97576695646
 15558.689952597584 16195.152989613101 -999747.7902884318
 14295.707149050522 16662.413187336369 -999758.96932404838
 12849.102026339764 17427.771432187183 -999765.55919876741
 11220.72407489268 18531.725932018962 -999765.30770237034
 9408.9750055137665 19938.994284918201 -999756.92430522921
 7194.8558504346174 21663.138239023345 -999739.43729900359
 4360.0114241801457 23673.770485728935 -999710.22946220287
 934.09262251212613 25793.238267964334 -999666.86267507344
 -3123.6548847003028 27953.34890683776 -999604.34826237825
 -6761.4899912676074 28857.210563462235 -999560.67532271089
 -0 -0 -0
 0 -0 0
 -0 0 -0
 -0 -0 -0
 0 -0 -0
 0 -0 -0
 0 0 -0
 0 -0 -0
 -0 0 -0
 0 0 -0
 -0 0 0
 -0 0 0
 -0 0 -0
 39432.965166386843 24918.729712002732 -998911.45662051893
 36575.942121269094 23440.792677469861 -999055.91920402192
 32696.677233326809 21026.92388814376 -999244.11220166914
 29157.713121475474 18650.200282463749 -999400.81938877248
 26324.038390934773 16675.890164475681 -999514.36192283651
 24112.788371654347 15084.540787590213 -999595.43319593614
 22388.561824342454 13849.622074820369 -999653.41007162188
 20986.414008728279 12934.649593751165 -999696.08645174827
 19779.941187646778 12304.544159301415 -999728.63924149214
 18713.479198712812 11935.402884130406 -999753.64558188664
 17747.846928581268 11789.850282437872 -999772.98091102531
 16829.936097333095 11833.139848310526 -999788.34262672311
 15895.622033578937 12051.206006305258 -999801.02902225452
 14882.283992029574 12455.801496996777 -999811.66758157406
 13740.3344401225 13076.785424590022 -999820.08426138002
 12432.254202746715 13942.855629722955 -999825.50269150827
 10895.496515253995 15069.092270109792 -999827.09035804844
 8986.9603431202904 16489.770587725197 -999823.64545441477
 6535.2199527446546 18247.184382681142 -999812.14793693821
 3395.7419397331 20368.1720383129 -999786.78052097501
 -547.273808714854 22877.19190607053 -999738.13300377352
 -4916.6636216240113 25415.907201015594 -999664.87288489903
 -8302.1316153500738 26961.545426224635 -999601.99563569867
 0 -0 -0
 -0 0 -0
 0 0 0
 0 0 -0
 0 -0 0
 -0 0 0
 -0 0 0
 0 -0 0
 -0 -0 -0
 -0 -0 -0
 0 0 0
 40475.81945222785 23602.907496528027 -998901.70226973854
 37760.653353159571 21739.964098772871 -999050.30254703725
 33919.325150217832 18902.96917308569 -999245.79415566998
 30199.931887805291 16213.858250427058 -999412.36479973933
 27116.666937989561 14025.628117078661 -999533.87542899
 24720.559765473648 12353.141965424433 -999618.07397048583
 22884.143341254407 11101.281418362805 -999676.48643669067
 21459.174771600887 10185.901025975274 -999717.83581089054
 20312.004725034672 9543.2575573003542 -999748.14263355604
 19342.320404252026 9126.8713682910602 -999771.26126949966
 18487.24848396688 8902.9913532766514 -999789.45703005663
 17702.118401406482 8841.7692483322735 -999804.20989344781
 16944.833645144754 8920.2394786629229 -999816.63415867498
 16172.016954547595 9128.4569588728536 -999827.55370172299
 15340.956912444854 9471.6440891832008 -999837.45828972524
 14410.862320630438 9967.0053336682286 -999846.48114190728
 13337.045508503767 10637.608470524194 -999854.47166231729
 12053.137592976196 11511.426242979964 -999861.09482268442
 10452.423893413334 12632.919483911732 -999865.56905419286
 8396.2974775011717 14067.007868809875 -999865.80173455691
 5729.4387849100358 15899.261711731131 -999857.1833058116
 2310.9577120007134 18227.241971955122 -999831.19931543898
 -1819.0693334586631 21035.091084869946 -999777.08311893768
 -6167.1496103310183 23957.382229747873 -999693.95822040515
 -9447.0141401735691 25839.069862286684 -999621.47655624489
 0 -0 0
 0 0 0
 0 -0 -0
 0 -0 0
 0 -0 -0
 -0 -0 0
 0 -0 -0
 0 -0 0
 0 0 -0
 41585.038591739925 22531.733172244541 -998880.87656415673
 38799.493902311835 20588.410610894804 -999034.89259456878
 34914.771859600172 17570.844905558566 -999235.82007216744
 31124.421156067874 14656.140133699715 -999408.05878483958
 27909.700495554378 12273.905854484578 -999535.09185687092
 25365.409870412099 10467.41419393479 -999623.44371378107
 23415.036893343717 9150.0128928798204 -999683.9567139924
 21925.756695532742 8211.5180404658713 -999725.87851110438
 20768.095809963863 7561.6323585083501 -999755.72412089887
 19834.708778737742 7134.3273053414923 -999777.81816839834
 19045.374833245005 6882.7694141150478 -999794.92956438474
 18344.535976714124 6773.5252711206404 -999808.78039513191
 17692.026257808106 6781.5774868701128 -999820.48509404063
 17054.409036879209 6889.7055484806497 -999830.82523487858
 16400.460017728474 7089.9496795640598 -999840.3660208704
 15699.289921721052 7384.283442732908 -999849.49100051611
 14918.138753273071 7783.7027685155481 -999858.42153144348
 14017.037160685039 8307.0540325800757 -999867.2489498473
 12939.483407037813 8982.6735963640585 -999875.93297579687
 11603.487531342666 9854.4210992855878 -999884.11801663693
 9900.0384224492609 10987.340447237524 -999890.62781342759
 7696.8738661409197 12471.700804225125 -999892.60163866542
 4855.2106434247708 14417.800463201835 -999884.27028302196
 1287.768144454554 16910.381141623628 -999856.17998932791
 -2933.5077394792511 19900.590179915755 -999797.66005068913
 -7356.9452620867551 22954.074326630194 -999709.45070466283
 -10750.585374604798 24870.366595931286 -999632.87750027888
 0 -0 0
 0 -0 0
 0 0 -0
 0 0 -0
 0 0 -0
 0 -0 0
 -0 0 -0
 43355.8021718046 21121.391369595411 -998836.40364408609
 40198.65146884034 19444.52380355449 -999002.49194591073
 36039.915341827429 16527.663127298267 -999213.6712704167
 32057.042403608204 13583.652714533499 -999393.73142483947
 28694.992441728809 11106.325809511185 -999526.51137215062
 26022.221052000961 9195.8928453474255 -999619.06722826057
 23964.215262474034 7796.5147528149937 -999682.41494214698
 22399.796819997464 6808.1068880198973 -999725.91182934924
 21204.049539057982 6132.8790055962218 -999756.35835849924
 20268.480095566054 5692.3453238452985 -999778.36839938175
 19507.069787597015 5428.4936132151943 -999794.98182647082
 18855.845951439082 5299.7447637917348 -999808.16648939915
 18269.125802293052 5276.4562613928729 -999819.18267841893
 17713.712496253953 5337.5053811429816 -999828.8530673167
 17163.395306124839 5468.9050331974277 -999837.74130570993
 16595.031034271356 5663.7163730368748 -999846.25181165594
 15985.76539542914 5922.1776157129843 -999854.68099969917
 15310.117803245474 6251.6805059425342 -999863.2490414388
 14535.775724104718 6667.1795486660094 -999872.12179406441
 13617.901371800701 7193.1305554264009 -999881.39878439624
 12493.443553604142 7867.3756210314914 -999891.00319435343
 11077.477078734895 8745.6097183784495 -999900.39694572776
 9262.0293343489557 9904.9274442336664 -999908.04938500957
 6920.4738606544088 11441.972753356651 -999910.59015346726
 3924.8862198508577 13455.034943033868 -999901.77382723091
 183.96081581938557 15997.367896775448 -999872.0169995724
 -4263.56921074606 18967.133058160514 -999811.01706329454
 -9006.8902135429671 21871.387643621649 -999720.22002719517
 -12830.3606297761 23477.006946792848 -999642.04192847467
 0 0 0
 0 0 0
 -0 0 0
 0 -0 0
 -0 0 -0
 46288.321848579682 18556.235820070517 -998755.75461302453
 42559.079713909188 17781.806277745349 -998935.69968211954
 37777.271227459903 15372.454008421104 -999167.93655339314
 33321.577591058223 12648.7956570879 -999364.63837543712
 29638.841623186454 10230.049656078198 -999508.3217018604
 26752.472411433737 8298.4062746524924 -999607.64386491978
 24549.350384544618 6849.5585086874153 -999675.15370941022
 22887.911734877027 5811.8739444240173 -999721.14392848092
 21634.3425908067 5099.514180873547 -999752.94456969842
 20674.382112450359 4634.5735905978063 -999775.5201303449
 19916.474761524325 4354.5149408467996 -999792.1645185583
 19290.687706034227 4212.1891720047215 -999805.04441126308
 18745.645606050166 4173.0870849024914 -999815.57605140063
 18244.534639015059 4212.2730686295181 -999824.6814874101
 17760.765629811067 4312.0279762809851 -999832.96685945243
 17274.00548121264 4460.5629303154992 -999840.84339107666
 16766.964520560901 4651.5735066771249 -999848.60442202853
 16222.707669193325 4884.2161434055452 -999856.47379438614
 15621.930388369319 5163.3679913563892 -999864.63829956832
 14939.65810956418 5500.379737538784 -999873.26818868006
 14141.242034193541 5914.7178073559926 -999882.51379199035
 13178.026736999042 6436.5820206454218 -999892.44922802085
 11983.220102333949 7109.9803752604712 -999902.92059531598
 10468.166550889999 7995.2299666234803 -999913.24313004466
 8519.8406810303841 9168.5594076661982 -999921.67184892949
 6001.4880228805187 10714.33697872302 -999924.58971895359
 2760.5512622718197 12703.045316921171 -999915.50242828252
 -1339.4865378042291 15138.888658223615 -999884.50324325426
 -6313.8132605949186 17840.793800263004 -999820.90488181263
 -11761.75322554499 20189.422582555071 -999726.98692035128
 -16277.106840652168 20832.944592078489 -999650.46101751074
 0 0 0
 -0 -0 -0
 0 -0 -0
 0 0 -0
 45168.944695302445 15709.138070024917 -998855.8401572319
 40487.470087229041 13996.914613307683 -999082.00421549147
 35326.612177429713 11676.997127191333 -999307.59939578001
 31035.538397140834 9454.157346303391 -999473.56856760895
 27732.576098550864 7594.458507183962 -999586.52873221564
 25262.175887436511 6151.1603884309252 -999661.93570391997
 23434.238979136197 5089.4881428570361 -999712.42542738875
 22081.594629890893 4345.2179985493631 -999746.72905648767
 21069.615807153215 3851.1311806276917 -999770.59372556489
 20293.827278128745 3547.9955370938956 -999787.76362889842
 19675.222079395466 3387.9513946131551 -999800.68384727289
 19155.488604641643 3334.1665570150744 -999810.95742629666
 18692.583560817613 3359.0234899255061 -999819.63587489934
 18256.703106327965 3442.126692576157 -999827.40738365427
 17826.650351070071 3568.7190361565495 -999834.72373272839
 17386.693772028695 3728.7189615301368 -999841.88726747362
 16923.910746539354 3916.2983786975824 -999849.11054221203
 16425.843527977497 4129.8606421726181 -999856.55766988418
 15878.142968480255 4372.3440414246052 -999864.37439457572
 15261.908139709791 4651.9364726371932 -999872.7087219602
 14550.533437112705 4983.3150320886152 -999881.71727859206
 13706.036796297034 5389.4223916860201 -999891.54345940065
 12674.801988818999 5903.5044887948661 -999902.24423655274
 11382.537379940586 6570.8259083540052 -999913.62731471763
 9728.2578865076575 7448.856222844799 -999924.93495235185
 7577.4895728300417 8603.8090858110882 -999934.27590066567
 4756.6304653925208 10099.870096353192 -999937.68160353508
 1058.1312116051927 11973.327610204075 -999927.75728263368
 -3707.4405192116433 14174.80117410357 -999892.65918721061
 -9474.4953854996202 16445.901927634808 -999819.86689952132
 -14924.67547036716 18100.258516618131 -999724.77947870013
 -0 0 -0
 -0 -0 -0
 0 0 -0
 48475.997506714441 13503.378799973822 -998733.06565203588
 44224.109474340519 12792.37063824619 -998939.72961067851
 38425.00732576767 10805.121858425888 -999203.06652533798
 33235.036300336171 8763.6999131368557 -999409.1404054435
 29223.349726085369 7006.122899015244 -999548.3530438689
 26272.875397933734 5605.2296350385795 -999639.09358281048
 24140.159919134137 4547.1736804609218 -999698.24241647951
 22602.81771890754 3785.8365715461814 -999737.35554525501
 21486.052624554599 3266.7293419773232 -999763.81111841649
 20658.91607455094 2938.093162287571 -999782.2646932652
 20025.162202059437 2755.4478342383336 -999795.67931953678
 19514.915915072444 2682.7171752650825 -999805.96671823552
 19078.106725869078 2691.637527950717 -999814.37323693978
 18679.398217004207 2760.5034292481237 -999821.71395857772
 18294.186149333804 2872.8611996302629 -999828.52000813687
 17905.3658687846 3016.475524124347 -999835.13578415371
 17500.668304958966 3182.669408086093 -999841.78609633981
 17070.419570008915 3366.0330597051761 -999848.62384120154
 16605.523615211616 3564.431336744592 -999855.76530553144
 16095.454847638384 3779.2913938920801 -999863.31730382412
 15526.018914493694 4016.1777823028128 -999871.39825713972
 14876.686059296795 4285.7012890332544 -999880.15130632231
 14117.272625421707 4604.7299764599629 -999889.7434594793
 13203.688057820047 4997.7773920440914 -999900.33745509421
 12072.276171201669 5498.2543988235166 -999912.01080225653
 10632.169070004224 6149.033904253989 -999924.57033663848
 8755.1529065385039 7001.3738426789805 -999937.16205664573
 6263.754921709191 8110.6125853980739 -999947.4902902504
 2923.4224194191547 9525.5794785766684 -999950.35723627533
 -1536.64300809422 11265.424411090489 -999935.36238154094
 -7281.9921785756251 13265.681257751072 -999885.49058913684
 -13804.717609175445 15195.261958531029 -999789.24468396965
 -18904.49689859978 15767.668411010642 -999696.95439662656
 -0 -0 0
 0 0 -0
 47554.854172440078 11151.671703842898 -998806.37566189375
 42432.798434919736 9991.2105440612104 -999049.36481079133
 36452.523939731407 8220.0014285490142 -999301.5786412718
 31495.504075296816 6549.3197000074124 -999482.43588094658
 27803.214330362815 5184.5277610917792 -999599.97096078121
 25162.133881571128 4137.1002514423881 -999674.82283992483
 23299.5371258122 3368.6776119690562 -999722.8533853119
 21986.006251762938 2831.3449928127052 -999754.26931552985
 21048.713675941417 2479.2109521402758 -999775.3773551553
 20362.458257796334 2272.088297978125 -999790.08192143298
 19837.939628555079 2176.4383059531278 -999800.83980140474
 19412.018035332851 2165.111596732113 -999809.22472618241
 19040.462896874425 2216.5487354352758 -999816.25696143589
 18692.665248305464 2313.8139530181165 -999822.5995299893
 18347.733927268371 2443.713477023442 -999828.67978678062
 17991.518267347983 2596.1176454275192 -999834.7690711735
 17614.261534666588 2763.5446712636881 -999841.03767120815
 17208.648025475813 2940.9856509102547 -999847.59490461182
 16768.05776501344 3125.9553786506476 -999854.51973862678
 16284.818703364543 3318.7378980845756 -999861.88579151384
 15748.263863734464 3522.8400201028389 -999869.78241342574
 15142.354186968721 3745.6469913614042 -999878.3322176215
 14442.601519800757 3999.2801739567612 -999887.7022043179
 13611.888257237757 4301.5885311217526 -999898.10122541059
 12594.638803770251 4677.1689303061421 -999909.74550916348
 11308.603710922673 5158.2049486261667 -999922.75121822138
 9633.5769520063677 5784.8156013549979 -999936.86305864737
 7397.2819206369268 6604.3131240737175 -999950.83042534941
 4362.8166562405077 7667.8409353562292 -999961.08426589007
 236.64129213807902 9019.0229475234792 -999959.29978473182
 -5235.7735875310764 10652.928637255618 -999929.54841148178
 -11876.907768590947 12367.821892701977 -999852.97721389355
 -17838.857868695894 13449.222464788161 -999750.41563633934
 0 0 0
 -0 -0 0
 46080.370386191629 9412.3947106345495 -998893.39085353992
 40627.501162076791 7903.5524519213541 -999143.10286763497
 34756.670553298667 6271.6078411941735 -999376.12578404928
 30090.524954596516 4902.1380490672691 -999535.15663557546
 26698.260274451135 3845.9364733400917 -999636.13963829912
 24317.661425210299 3066.6183370092804 -999699.57847084419
 22669.391355040723 2513.7481232347186 -999739.85604554415
 21528.156651226873 2141.3387258498333 -999765.9491799376
 20727.51059513116 1910.9160082084138 -999783.3358805991
 20148.716454462126 1791.0567274038415 -999795.38973783865
 19708.364875857824 1756.3426225817036 -999804.22864404414
 19348.379853645605 1786.3270790524828 -999811.20679486566
 19028.680504618067 1864.6009613571646 -999817.19958275778
 18721.944555130682 1978.000883132127 -999822.77244748792
 18409.84307671032 2115.9797696269861 -999828.28541080258
 18080.27024263468 2270.1707931286246 -999833.96129183506
 17725.210652707832 2434.1332514305864 -999839.93314061593
 17339.004394462227 2603.2781282680653 -999846.27911974327
 16916.794443183506 2774.9405422338341 -999853.05008823855
 16452.981316023815 2948.5977545380902 -999860.29282950144
 15939.474370091581 3126.2149018920745 -999868.07126600097
 15363.522416451315 3312.7331412622625 -999876.48636123736
 14704.810224041565 3516.6877821248977 -999885.69419875089
 13931.420741010957 3750.9639016652923 -999895.917476387
 12994.076116047461 4033.6688106559623 -999907.43746699707
 11817.940354475204 4389.1300497094226 -999920.53275407094
 10291.257060401835 4849.0127368619205 -999935.28645787621
 8250.8727298815811 5453.5013668858019 -999951.09001492499
 5467.8566063954468 6251.9407612841942 -999965.50729555136
 1647.2543826033361 7299.9162535364912 -999971.99849580298
 -3508.3411602643264 8640.8099389295221 -999956.51302739291
 -9991.8292665065801 10233.482100008481 -999897.71436483331
 -16230.871398014469 11710.261776332038 -999799.69423019479
 -0 0 -0
 50103.585270284595 8860.2533021684467 -998704.72445787722
 45510.31049239725 7887.8898205220203 -998932.72688057681
 39130.172446641547 6206.1952202489283 -999214.84814087127
 33375.785299401155 4757.2814613658411 -999431.55104726704
 28983.918616180017 3659.0067146785532 -999573.18097851751
 25848.828365107642 2857.7819378699896 -999661.77838034136
 23679.04998093114 2289.2363760104649 -999716.99094734562
 22197.901573258107 1900.5025722951814 -999751.78982371243
 21188.205589503548 1650.8810339286422 -999774.14176188246
 20491.1296693611 1509.192875695047 -999788.89568835346
 19994.118450006597 1451.2429544935233 -999799.04436906427
 19618.637002740234 1457.9514730292183 -999806.4730034793
 19310.409578202649 1514.0430409986438 -999812.39027909248
 19032.284904201839 1607.1282468762461 -999817.57799616805
 18759.168344950878 1727.0486030005968 -999822.5397069864
 18474.430257192835 1865.4318867571474 -999827.5929331755
 18167.299292409552 2015.4105855177984 -999832.92972205707
 17830.900495382066 2171.4911637263276 -999838.65879133204
 17460.66961186254 2329.5395885829453 -999844.8370932414
 17052.953252951211 2486.8776918518633 -999851.49508549436
 16603.598608300359 2642.4640215676304 -999858.6589599296
 16106.354297050158 2797.1673273028614 -999866.37167483557
 15550.83963051741 2954.1216507545132 -999874.714427792
 14919.797797543632 3119.1865719614952 -999883.82840648515
 14185.21133274973 3301.5211863029713 -999893.93424367846
 13302.742407225654 3514.3270207235842 -999905.33879464713
 12203.792551142538 3775.8288939925878 -999918.40195264516
 10784.51029784702 4110.6437942475141 -999933.39625458652
 8891.6342989795357 4551.7117904275519 -999950.1091350856
 6307.4756753161118 5142.8805942731542 -999966.88271652174
 2744.0599482540429 5941.5107073337012 -999978.58406343625
 -2119.4713592372832 7017.5182889151974 -999973.13077813364
 -8445.633459517212 8429.9152765252347 -999928.80136732629
 -15577.36735328961 10058.547712783062 -999828.07084230764
 -21078.793779628824 10867.747572171233 -999718.74870660668
 49808.924954618778 6257.1611117741622 -998739.16461190523
 44415.79987777787 5583.7545957182083 -998997.52672658407
 37854.555075792894 4472.4831217854562 -999273.25069509365
 32297.407678933312 3458.1031249921539 -999472.32026704855
 28144.769713296046 2677.8832971416232 -999600.2705475986
 25213.925116626317 2114.4548430578175 -999679.84227998217
 23205.51356689557 1723.6956721210136 -999729.2298484256
 21849.734199613697 1466.0515320423603 -999760.19115001336
 20937.764303945616 1310.9067865245861 -999779.92155741435
 20317.653823958546 1235.1750382938994 -999792.81217946077
 19882.011603708095 1221.2459870597327 -999801.58740263502
 19556.079589015255 1255.3457611755443 -999807.97349197394
 19288.32996596364 1326.3996841214009 -999813.08302652359
 19043.598334411901 1425.2716991623251 -999817.63835364557
 18798.224622784513 1544.277503629444 -999822.10515572364
 18536.620055328789 1676.8821153187794 -999826.77588835137
 18248.807131171368 1817.5447408370242 -999831.82464322681
 17928.578036482329 1961.6654525101717 -999837.34575091884
 17572.029848646234 2105.6227768908116 -999843.38279538543
 17176.264113289966 2246.8708739996187 -999849.95250406757
 16738.084741717048 2384.0980197498311 -999857.06608285313
 16252.493465570333 2517.427879418507 -999864.75036027923
 15710.773647611788 2648.6806686643772 -999873.06998544023
 15097.858227617966 2781.6948601094164 -999882.15148118546
 14388.604643380104 2922.7520673938047 -999892.20697871677
 13542.439327752712 3081.1453339038949 -999903.54978892102
 12495.733639893639 3269.9898264440017 -999916.57842408807
 11151.239142487249 3507.3864767531954 -999931.67171846773
 9364.4062876073076 3818.0625676962932 -999948.86383910163
 6928.3286281444625 4235.3665120112682 -999967.0294229351
 3565.3016591493806 4802.4610370230666 -999982.11233604921
 -1048.4889683611495 5567.3106068657207 -999983.95273298735
 -7145.6036856905503 6549.5621726819491 -999953.02068812877
 -14403.19825966333 7608.2262324348358 -999867.32258509623
 -20685.665143957049 8198.1576732911817 -999752.41608526057
 49424.421838767841 3834.6913810801816 -998770.50500498654
 43669.157316067933 3513.667404882307 -999039.86849408178
 37012.067767228575 2940.8582409494265 -999310.49138513533
 31562.632221819618 2362.5282729657192 -999498.98384510109
 27562.140853119876 1892.1059596969058 -999618.30131637258
 24768.632262800795 1546.9791093889651 -999692.01342786837
 22871.033335726625 1311.1310803309586 -999737.56394838262
 21602.124689289885 1163.0624505041005 -999765.97036238655
 20758.417256367906 1084.0491520075329 -999783.93313277781
 20192.769820825637 1059.3537992788395 -999795.54400711914
 19801.440730056493 1077.5256662035265 -999803.35160643107
 19512.274071183092 1129.4690870981501 -999808.97948565788
 19275.539114253872 1207.7009269944695 -999813.48013033206
 19057.289197115268 1305.8539428551753 -999817.54059125087
 18834.670918161068 1418.3695249359976 -999821.60578739992
 18592.631308562104 1540.3392383904409 -999825.95556229423
 18321.562458565881 1667.4424664077758 -999830.75567052746
 18015.559526863464 1795.9634287190445 -999836.0936324998
 17671.031872404132 1922.8527162476998 -999842.00615397014
 17285.48332724208 2045.8308136104743 -999848.50184536772
 16856.273040899436 2163.5095051386838 -999855.58221464755
 16379.187596982367 2275.5406038144242 -999863.26271576923
 15846.59340431234 2382.7816872866538 -999871.59567061858
 15244.902593138622 2487.5054055503188 -999880.69551411131
 14550.961115235965 2593.664959211354 -999890.76525023568
 13726.869601744318 2707.2703192487543 -999902.11707864446
 12712.588494467764 2836.918858423418 -999915.16739429487
 11415.664630791463 2994.5396608761994 -999930.35524143209
 9697.7208054549737 3196.2859462069227 -999947.86762477248
 7358.8731065137654 3463.1269629257094 -999966.92632218637
 4126.1061774956333 3819.3882846756796 -999984.19363555079
 -333.66837965489856 4283.9637769139363 -999990.76811727148
 -6310.7015817734391 4841.3882888382659 -999968.36750218389
 -13645.893430936774 5378.1277527575439 -999892.42688118538
 -20286.127781745068 5650.1426929911577 -999778.24986702506
 49165.919616121399 2054.8381957692891 -998788.51114151825
 43271.415829156242 1942.7034374178568 -999061.46481359913
 36553.989319399516 1717.3695811644873 -999330.20393989841
 31139.767819427201 1469.9776778422554 -999513.95889491134
 27211.977213790848 1259.871977701993 -999628.89164865389
 24492.637659383639 1105.9909669138963 -999699.39856162132
 22658.53704680426 1006.7701387419413 -999742.75546901883
 21441.210817670351 954.3197349122089 -999769.65534692828
 20639.286474177356 940.35730717464378 -999786.54500946938
 20108.135993290984 957.82972873852509 -999797.35218147386
 19746.051785997875 1000.9571777021091 -999804.52665688249
 19482.308070032166 1064.8831475625345 -999809.63472860481
 19268.101187352193 1145.3447208374848 -999813.6968766253
 19070.03528138782 1238.4490677421625 -999817.38332471158
 18865.551088015018 1340.5641233982985 -999821.13093791751
 18639.721096074059 1448.2864261456891 -999825.21635728318
 18382.975165929809 1558.4728248373358 -999829.80420994805
 18089.415700700887 1668.3025333494977 -999834.98128754471
 17755.488700489881 1775.3660367703371 -999840.7826731425
 17378.804731123808 1877.7548479807979 -999847.21391963109
 16956.949552651426 1974.1570577767675 -999854.27166451619
 16486.09168666424 2063.9413305796711 -999861.96493670205
 15959.188037027256 2147.2450910766233 -999870.33842179656
 15363.499492944156 2225.0628172446454 -999879.49872911652
 14677.06209727141 2299.3651503276501 -999889.64229463774
 13863.604712935556 2373.2613295376464 -999901.07915484556
 12865.289201628157 2451.2435795565934 -999914.23419144901
 11592.535241327494 2539.5025795208462 -999929.57954714342
 9910.4111488389171 2646.2194095338286 -999947.38925290364
 7622.1847157717239 2781.3972448128234 -999967.08252298238
 4454.7197135431707 2955.0158199485618 -999985.71157480916
 63.778079662991409 3170.7344170664292 -999994.97117516201
 -5876.9386974393401 3411.1858316256471 -999976.91243486642
 -13269.794673980425 3617.5182063925481 -999905.40858190029
 -20053.319605700188 3699.537703556015 -999792.0672787776
 49077.338705848379 673.95153779070756 -998794.75399847596
 43139.171375196493 693.41165207103575 -999068.83199974871
 36391.173243826022 706.47033268000837 -999337.37216698111
 30977.076397013432 715.20822125006896 -999519.83933041256
 27067.117967722639 726.3159940652107 -999633.35458056722
 24370.479910489164 744.21502875803901 -999702.71873838757
 22558.093831623388 770.94045281426781 -999745.23657454923