# OOMMF OVF 2.0
#
# Segment count: 1
#
# Begin: Segment
# Begin: Header
#
# Title: Oxs_TimeDriver::Magnetization
# Desc: Oxs vector field output
# Desc:  MIF source file: /mnt/gpfs/work/plgrid/groups/plggspinsym/MF/switching-obrazki/p-ap/Anisotropy.mif
# Desc:  Iteration: 29100, State id: 203850
# Desc:  Stage: 0, Stage iteration: 29100
# Desc:  Stage simulation time: 4.28476e-09 s
# Desc:  Total simulation time: 4.28476e-09 s
# meshunit: m
# meshtype: rectangular
# xbase: 1.0000000000000001e-09
# ybase: 1.0000000000000001e-09
# zbase: 3.4999999999999998e-10
# xnodes: 35
# ynodes: 35
# znodes: 5
# xstepsize: 2.0000000000000001e-09
# ystepsize: 2.0000000000000001e-09
# zstepsize: 6.9999999999999996e-10
# xmin: 0
# ymin: 0
# zmin: 0
# xmax: 7.0000000000000005e-08
# ymax: 7.0000000000000005e-08
# zmax: 3.4999999999999999e-09
# valuedim: 3
# valuelabels: Magnetization_x Magnetization_y Magnetization_z
# valueunits: A/m A/m A/m
#
# End: Header
#
# Begin: Data Text
 -0 0 -0
 0 0 -0
 -0 -0 0
 -0 0 0
 0 0 0
 -0 0 -0
 0 0 0
 0 -0 0
 -0 0 0
 0 0 0
 0 0 0
 -0 -0 0
 0 0 0
 17623.676695674025 30605.332645296989 -999376.16523178946
 15389.506086194475 29968.077424843956 -999432.37762135849
 13465.533085892368 29302.143187536803 -999479.89665792161
 12027.163209562052 28828.438344582188 -999512.01517927891
 10764.086649785373 28594.304040126659 -999533.14112892561
 9349.6795286230408 28621.802703116417 -999546.58515885891
 7476.8531747419402 28935.089912346717 -999553.32886163099
 4943.4279523594387 29514.88638178218 -999552.11670125043
 2274.2245715096888 30123.969669677874 -999543.58301873878
 0 0 0
 -0 0 -0
 -0 0 -0
 -0 0 0
 0 -0 0
 -0 0 0
 -0 -0 0
 0 0 0
 0 -0 0
 0 -0 -0
 0 -0 0
 -0 -0 0
 0 0 -0
 -0 -0 -0
 -0 -0 -0
 -0 -0 -0
 -0 0 -0
 0 0 -0
 0 0 -0
 -0 -0 0
 0 0 0
 0 0 -0
 0 0 0
 21878.119563591503 28587.521425672836 -999351.84069630748
 19984.477306128461 26936.179727381936 -999437.37316977268
 18545.208779248005 24836.595199252581 -999519.4939420853
 16923.1975183186 24373.707573686723 -999559.66693583038
 14886.897957605359 23329.493508933781 -999616.98415033775
 13239.095768893243 22556.113064750592 -999657.91554242803
 11981.586777956725 22086.097575217955 -999684.2730943507
 10864.499031601117 21893.948723123765 -999701.26421351556
 9628.1326861265788 21994.81501350394 -999711.72203465737
 8043.4572445450494 22451.880969293648 -999715.56746731512
 5996.0546987712278 23358.389592543532 -999709.17419202102
 3832.6703396821626 24654.856689971501 -999688.67587847786
 2585.4482415950451 25182.854510577661 -999679.51829378249
 678.33058428148581 26717.036241845559 -999642.80612730375
 -1932.5031865936153 27894.135194949566 -999609.01489190268
 -0 0 -0
 0 -0 0
 -0 0 -0
 0 -0 -0
 -0 0 0
 -0 0 0
 -0 0 -0
 -0 0 0
 -0 0 -0
 -0 0 0
 0 -0 -0
 -0 0 -0
 -0 0 0
 -0 0 0
 -0 -0 0
 0 0 -0
 0 -0 -0
 -0 -0 0
 25964.228595506695 26118.21968274641 -999321.61861637107
 23476.22626876046 24081.247578633436 -999434.32016077696
 20947.223585355023 22795.150275789401 -999520.6826014003
 18655.505333492252 20660.834728495654 -999612.4759270834
 16968.855125250411 18582.707394749414 -999683.32032780233
 15456.373671048812 17115.6027896042 -999734.04296047124
 13982.757419750129 15983.958738760139 -999774.47234762809
 12770.135364356722 15250.69722012784 -999802.15036629909
 11800.591612432636 14845.73015880807 -999820.1589954308
 10923.254792465976 14720.701817158746 -999831.97760561225
 9969.9362757485214 14882.303096728187 -999839.54583982844
 8801.953391801273 15386.99454060579 -999842.8706629338
 7367.4083113230499 16313.883261603387 -999839.7764180525
 5793.7407123831526 17654.176868962408 -999827.36640263908
 4241.971713697093 19126.118841988296 -999808.08021040831
 2125.6199226593953 20975.175757146793 -999777.73717056797
 -724.44199115922311 22969.166700036003 -999735.91141106235
 -3589.3851564141328 24081.56409624443 -999703.55335213128
 -6680.4156690796854 25464.461179102294 -999653.40656816959
 -0 0 -0
 -0 -0 -0
 0 0 -0
 -0 0 0
 -0 0 -0
 0 0 -0
 0 -0 -0
 -0 -0 -0
 -0 -0 0
 0 0 0
 0 0 0
 0 0 -0
 -0 0 0
 0 0 0
 -0 -0 -0
 27710.934071298114 21904.214768696194 -999375.9600411962
 24663.145988565651 20746.058081551313 -999480.53022758965
 21446.10835150542 18230.626979332963 -999603.77584146603
 18844.100448731057 15953.835476522298 -999695.14103643922
 16819.205137296085 13878.664435312348 -999762.22023641272
 15324.924583605489 12138.287561329673 -999808.88606852537
 14127.778509387561 10829.301248687556 -999841.55350178108
 13106.762474522382 9896.1712700268963 -999865.1301908826
 12273.30862021869 9306.9333617292777 -999881.36640649172
 11589.402172689706 9002.4180029416239 -999892.31531569432
 10963.824299986767 8944.2634429179507 -999899.89234331995
 10293.938319998142 9132.3196457824852 -999905.31330309028
 9494.5938329511428 9598.7231788788158 -999908.85444688529
 8520.7528452655733 10385.042896521358 -999909.7697567452
 7369.7052565606318 11496.083998740427 -999906.75940165797
 5986.6869589347698 12882.026496068709 -999899.10139604087
 4109.98942530978 14618.767618852942 -999884.69316228153
 1578.9231471639143 16701.953413488183 -999859.26597390138
 -1576.2260158331931 18919.002299913893 -999819.7771916308
 -5400.3193345118261 21281.260291308226 -999758.94320155936
 -8662.476794703829 22428.095751081852 -999710.92922742502
 -0 -0 -0
 0 -0 0
 -0 0 -0
 -0 -0 -0
 0 -0 -0
 0 -0 -0
 0 0 -0
 0 -0 -0
 -0 0 -0
 0 0 -0
 -0 0 0
 -0 0 0
 -0 0 -0
 28570.76495680448 19014.487033494097 -999410.90682093136
 25589.77735712158 17258.023041661185 -999523.54846472049
 21995.317573827346 14647.086694377109 -999650.77344850474
 18995.770044537894 12108.967641488303 -999746.23461310053
 16760.830113816941 9998.0944358540892 -999809.53820292559
 15133.512103779087 8280.7783936227424 -999851.1916883433
 13960.221890411747 6929.45478016587 -999878.54005435097
 13080.909191534342 5925.2232095769632 -999896.88545601524
 12392.431845346689 5228.3180637827991 -999909.54207027284
 11849.291053861807 4800.27903632376 -999918.27247165272
 11405.647307545898 4599.9941983613826 -999924.37277169654
 11000.361689966692 4600.5421911490721 -999928.91100029578
 10567.693304180784 4797.5659617517231 -999932.65134161466
 10048.835488722818 5205.7825074411066 -999935.95831623417
 9396.6704939533392 5847.1729761837587 -999938.75470041414
 8564.3476255968653 6736.7443082606833 -999940.63235067751
 7465.876261567445 7888.2855378217373 -999941.01608190895
 5944.4953987831059 9357.7660415068094 -999938.54570626782
 3844.7082613099628 11199.999905377206 -999929.88665231166
 1036.1650718240289 13442.784182236077 -999909.10482672066
 -2560.6355832276772 16127.664438527921 -999866.66190305992
 -6505.7061424646645 18860.90022688371 -999800.95130491827
 -9464.5541033800673 20555.86561727936 -999743.90651023644
 0 -0 -0
 -0 0 -0
 0 0 0
 0 0 -0
 0 -0 0
 -0 0 0
 -0 0 0
 0 -0 0
 -0 -0 -0
 -0 -0 -0
 0 0 0
 29213.699141875662 17120.015785563268 -999426.56800885068
 26199.405492557962 14928.127506327839 -999545.26768975868
 22492.597053246089 11952.211157131092 -999675.56123287126
 19249.261873428273 9244.3077074674511 -999771.97834923223
 16776.869166246124 7028.4096000118325 -999834.55537377414
 15004.764200914056 5291.8112908420871 -999873.4188808786
 13762.971360564028 3949.7095656555571 -999897.48495217017
 12899.519210056098 2935.3804091360698 -999912.48914392665
 12290.735252786804 2202.0524752426118 -999922.04135714623
 11850.915484408373 1710.1329831719913 -999928.31305417151
 11526.183793228865 1425.6100518956478 -999932.55508716428
 11272.543137448882 1318.9483219127274 -999935.59299913852
 11044.932449330619 1370.5475695895391 -999938.06361521664
 10797.354867881806 1574.1981734305459 -999940.46774193889
 10485.181775254881 1935.6866205822491 -999943.15542457043
 10063.840552877771 2468.3637314639659 -999946.31170569104
 9479.9856961811984 3190.1711878680708 -999949.97508825047
 8655.3650232487144 4129.2765857224094 -999954.0158083234
 7477.3343441075967 5337.3971979593935 -999957.79994070623
 5813.9618062579038 6884.4800713259992 -999959.4000669542
 3525.4354680366368 8855.6194468982121 -999954.57362270856
 499.0982438567861 11341.426342617238 -999935.55939843331
 -3199.1273846555387 14295.958999159644 -999892.68981239735
 -7107.811205279635 17323.909139491221 -999824.66522485658
 -10034.998761390621 19256.05579302779 -999764.22376236017
 0 -0 0
 0 0 0
 0 -0 -0
 0 -0 0
 0 -0 -0
 -0 -0 0
 0 -0 -0
 0 -0 0
 0 0 -0
 30122.35365136576 15733.997818078045 -999422.37573668663
 26877.903508509145 13326.771130114865 -999549.88643600617
 22981.207277595266 10110.976776114172 -999684.76644425117
 19555.895546408981 7192.1797957389454 -999782.89618254814
 16891.02263774391 4843.794564165727 -999845.60358510911
 14955.264584775265 3032.5152684381333 -999883.5651776389
 13609.669447241313 1661.4269983953068 -999906.00386129587
 12701.053000607068 636.68420717851859 -999919.13567342842
 12101.157760304486 -111.30859189469898 -999926.77211446734
 11711.612702190412 -631.56887035105683 -999931.21725880506
 11462.126962106942 -960.79947514133664 -999933.84606676491
 11303.665348074106 -1127.8682065345151 -999935.4754497949
 11197.734824395178 -1155.5352014864284 -999936.63572908496
 11109.10590869746 -1059.1969204376605 -999937.73099518206
 11003.063784401011 -845.65598682975815 -999939.10687266767
 10844.152017909053 -513.42086700027278 -999941.06864656054
 10593.49817520445 -53.754740726824807 -999943.88587902277
 10203.21337260301 549.63851582063455 -999947.79480449622
 9608.8176390944955 1324.4232280272663 -999952.95715683128
 8724.3035567771112 2315.6104387474838 -999959.26140805613
 7443.7710103302697 3587.6783137638745 -999965.85883592197
 5645.3858878202418 5225.3129007222005 -999970.41242392105
 3206.7829803571658 7324.7330344392685 -999968.03190346586
 52.787712037235984 9944.6028328615121 -999950.5498213172
 -3758.2338610265374 13009.903510745111 -999908.30484044238
 -7824.7226090800214 16084.436405665654 -999840.01951392367
 -10993.119757297485 17981.163348417005 -999777.88987486565
 0 -0 0
 0 -0 0
 0 0 -0
 0 0 -0
 0 0 -0
 0 -0 0
 -0 0 -0
 31852.997531583023 14457.178074033454 -999388.00100380857
 28056.795629307566 12078.641684357914 -999533.35243706417
 23735.125175684912 8798.9451966292345 -999679.55985721829
 20005.161931307724 5759.4766764955766 -999783.28748009936
 17112.62640074117 3282.6087747664283 -999848.17972395197
 14998.224580577071 1370.0615797195851 -999886.58166348981
 13521.486481384876 -69.860204653339053 -999908.57808245916
 12532.507723388317 -1136.6849384397815 -999920.81896393874
 11898.821916524555 -1912.7354209877174 -999927.37710306165
 11514.996584405748 -2458.7566560421342 -999930.67728186399
 11301.722670481537 -2818.2759338478691 -999932.16189171548
 11201.44696727217 -3023.3318157425924 -999932.6912600525
 11172.410240670131 -3098.3406515621418 -999932.78650848381
 11182.049840743939 -3061.9302039865815 -999932.79091386206
 11201.883964982799 -2927.0772314933097 -999932.97276093264
 11204.396921805743 -2700.7583644592569 -999933.58149122854
 11160.829025049505 -2383.8178126441435 -999934.87453339167
 11038.580014439292 -1970.8057709291209 -999937.13086167502
 10797.54968613575 -1448.9441534530838 -999940.65497989219
 10385.808697222319 -795.60628689656448 -999945.74952261325
 9735.9534959198645 25.100486646915503 -999952.60416656279
 8763.0835782966587 1064.9163346586429 -999961.03640061885
 7363.8268299159026 2392.5910824805619 -999970.02433189517
 5418.9133551040004 4089.6991813449231 -999976.95460378297
 2804.8264190537616 6232.1242125740446 -999976.6465155863
 -577.16846284291489 8849.2208441481362 -999960.67831041082
 -4714.4929867783967 11826.510627609297 -999918.95031660062
 -9243.5321884087225 14686.333246764829 -999849.42302751087
 -13002.444035143795 16224.562878426697 -999783.8266387973
 0 0 0
 0 0 0
 -0 0 0
 0 -0 0
 -0 0 -0
 34914.65230782982 12611.346405229171 -999310.72294660727
 30239.744849603721 10809.628764644254 -999484.22186515853
 25116.761010380971 7749.9677210741756 -999654.48346749786
 20816.711635097243 4733.2046489967379 -999772.10467708693
 17541.422107771028 2192.3948143673483 -999843.73374813679
 15168.963345157252 188.94849993021924 -999884.92680382868
 13516.281375190008 -1337.2363230191258 -999907.75671398966
 12412.013113099054 -2474.368308737859 -999919.90650849289
 11712.392968906743 -3304.4292719825307 -999925.94755718205
 11302.858505321445 -3893.2542519681806 -999928.5414273052
 11095.748882243533 -4290.2339784026171 -999929.23662084853
 11025.958675644648 -4531.719258971727 -999928.94335339672
 11045.929624524608 -4644.8664321354718 -999928.20374992816
 11120.574521739261 -4650.4463557616809 -999927.35044652049
 11222.508453200859 -4564.3695984973119 -999926.60822391661
 11328.198923636557 -4398.1634717907355 -999926.16130753479
 11415.157093551234 -4158.9145208284208 -999926.1960857599
 11459.728830518043 -3849.0290758792576 -999926.92712532973
 11434.872829656382 -3465.7572263394386 -999928.61355709669
 11307.554156648093 -3000.2073159042206 -999931.56664596603
 11035.739865947455 -2435.6643692043617 -999936.13795316534
 10565.240114609502 -1745.4822027880805 -999942.66285282595
 9826.4149182711753 -891.17276597614205 -999951.32250572846
 8730.4068816066156 178.60717089584378 -999961.87332075811
 7165.2365464390705 1526.4012697190644 -999973.16438212374
 4993.3401915682962 3218.2368153154807 -999982.35459708574
 2055.4474395522361 5304.6453165401972 -999983.8178060127
 -1800.3606742305351 7774.9750377546561 -999968.15372520976
 -6612.5093347546517 10449.136788537515 -999923.54220743896
 -11997.231840184986 12740.981929376256 -999846.8551771557
 -16509.410859598109 13361.515612530944 -999774.42918570654
 0 0 0
 -0 -0 -0
 0 -0 -0
 0 0 -0
 32442.859626152884 9202.1204814659523 -999431.22916883184
 27281.055247507065 6775.3406091979768 -999604.84131691349
 22236.546477544562 3959.2089193595957 -999744.89779417473
 18351.251921573599 1443.7989079232102 -999830.55914371018
 15562.609714802198 -609.4440084767707 -999878.70952274266
 13638.308322342187 -2213.2503417627881 -999904.54447863647
 12360.712729479885 -3431.5660177206337 -999917.71518234699
 11556.042725571859 -4335.5815211223317 -999923.82740356727
 11091.165552029108 -4988.2107521170037 -999926.04916573199
 10865.754480208316 -5440.034152870272 -999926.16797841201
 10805.266440604857 -5729.9431183455863 -999925.20418729726
 10854.990739551302 -5887.501324546768 -999923.75034509401
 10974.941250166336 -5935.442496923728 -999922.15756373818
 11135.41630793072 -5891.5595521940331 -999920.64286606852
 11313.202659160983 -5769.8150710585369 -999919.35708817979
 11488.495620964695 -5580.7806529779091 -999918.4313511129
 11642.504233113799 -5331.650121586209 -999918.00943985558
 11755.486629501927 -5025.9974684533918 -999918.27060192812
 11804.892633154095 -4663.3110343577182 -999919.44577556674
 11763.323647757734 -4238.2170949231759 -999921.82781086175
 11596.131730545836 -3739.3637940317567 -999925.77068865648
 11258.479719178247 -3148.0665920293209 -999931.66582079267
 10691.551349195186 -2436.9952328506774 -999939.87408442842
 9817.3981385251882 -1569.2842804907707 -999950.576798992
 8532.0408469402046 -498.88420142559323 -999963.47702980612
 6697.0722840458457 826.37585283166186 -999977.23290371592
 4132.4577759098192 2456.1772771422548 -999988.44492619683
 622.03305487577256 4416.5758586373768 -999990.05341681454
 -4028.29071097223 6660.8914111089307 -999969.70224080153
 -9732.0967688463534 8960.4316943468348 -999912.49464957335
 -15087.123340916947 10687.33772054861 -999829.06515151018
 -0 0 -0
 -0 -0 -0
 0 0 -0
 36034.068327583678 7434.0917857213526 -999322.91087470041
 30622.458820473548 5930.763133370895 -999513.42715565558
 24598.531372830919 3386.9971509033294 -999691.6727194438
 19790.094569310244 953.54481322546417 -999803.70218819787
 16341.821821766456 -1105.6716962285025 -999865.85217700386
 13982.487867617183 -2761.5676321266533 -999898.42673005804
 12428.285413279242 -4053.0937038057104 -999914.55142582767
 11453.955011171165 -5036.2647626831958 -999921.71841191757
 10892.004734317674 -5765.7259014044221 -999924.05743521231
 10619.878151566672 -6288.4715822806529 -999923.83375595394
 10548.194221130072 -6642.6186265129072 -999922.30258978426
 10611.919630030252 -6858.2854587118863 -999920.17235493974
 10763.841388257859 -6959.1937007307306 -999917.85129659716
 10969.554117025507 -6964.2497563222696 -999915.58049057587
 11203.472894280207 -6888.7475925034114 -999913.50993559137
 11445.605976129302 -6745.092332750326 -999911.74702233681
 11678.977470838856 -6543.1024624807314 -999910.39063278132
 11887.574112458275 -6290.0034208593761 -999909.55662934156
 12054.644803026154 -5990.2174030024953 -999909.39731264522
 12161.113820459888 -5644.9774507917737 -999910.11673061177
 12183.871901037432 -5251.7638135608913 -999911.98224761069
 12093.681275116076 -4803.5457580131733 -999915.33082624874
 11852.387184700654 -4287.8804545526555 -999920.56434460403
 11408.981612397301 -3685.9523947029284 -999928.1218635228
 10693.922708252778 -2971.7223532082903 -999938.40254455945
 9611.071089531275 -2111.4711306162335 -999951.58332900133
 8026.9891794990808 -1064.3216403646322 -999967.21679470991
 5759.0946428113284 215.08750213828253 -999983.393145237
 2570.4392941433907 1768.9272920316341 -999995.13185718586
 -1800.4009419528377 3616.451301194219 -999991.83988492342
 -7477.2000968730417 5698.5121624421145 -999955.80824246735
 -13869.046481774149 7669.8637293252723 -999874.40348278743
 -18778.786841794063 8205.1680716372684 -999789.99413960264
 -0 -0 0
 0 0 -0
 33757.416150107361 4780.5155877492762 -999418.6227630463
 27922.230294724286 2935.3354078617549 -999605.7887294431
 22112.569719389503 670.42589759913585 -999755.26244652527
 17733.335928673954 -1362.2590792340393 -999841.82401369978
 14707.644457721823 -3042.4428195387627 -999887.20800708071
 12713.982433463252 -4386.3868843950086 -999909.55304006464
 11462.575053391425 -5438.090611378736 -999919.51503290911
 10734.388394019606 -6243.4452062882847 -999922.89317615028
 10371.126142477257 -6843.4299434758859 -999922.80062470096
 10259.479379059585 -7272.5536038998453 -999920.92339691985
 10318.293675222618 -7559.1093539462645 -999918.19299451029
 10489.3263017832 -7726.1035653628578 -999915.13707785809
 10730.664966125942 -7792.34878873464 -999912.06219834136
 11011.909524137298 -7773.4394962272527 -999909.15161680093
 11310.502951874001 -7682.4660660605259 -999906.52174996806
 11608.872650473711 -7530.4326761328812 -999904.25874655391
 11892.174040056068 -7326.4096866240479 -999902.44520038273
 12146.496763415478 -7077.489412762252 -999901.1809973967
 12357.36455590894 -6788.5978153989799 -999900.60030031647
 12508.346482339064 -6462.1985531518758 -999900.88571724819
 12579.545519153608 -6097.8847326998548 -999902.28064362286
 12545.698287276244 -5691.8608660230375 -999905.0995841386
 12373.523766914595 -5236.3020788933163 -999909.73445112945
 12017.850058572329 -4718.6051158070795 -999916.6495492165
 11415.896893790885 -4120.5282133506344 -999926.34656026226
 10479.040076917658 -3417.267563409152 -999939.25415570429
 9081.6333679258241 -2576.5843946248638 -999955.44158138777
 7047.8218465907194 -1558.4595070056039 -999973.94936627417
 4142.0230777089264 -317.00409885258881 -999991.37153938727
 83.838013446928002 1188.830564741455 -999999.28982628556
 -5345.7456190048706 2951.3862201661473 -999981.35598777863
 -11906.68218145261 4763.6533560412945 -999917.76588184142
 -17673.562271772898 5937.2159503616413 -999826.182225383
 0 0 0
 -0 -0 0
 31096.65881035131 2462.7110221755515 -999513.34801755089
 25373.898608013154 544.71126591272571 -999677.88239965925
 19985.64269573069 -1432.0985681560301 -999799.24143786472
 16040.12756631597 -3115.9543047084853 -999866.49365624192
 13382.783723079867 -4487.3635017957467 -999900.37737197801
 11690.448902858388 -5584.9451589131413 -999916.06737366796
 10684.19966661224 -6450.4993544524159 -999922.11643485632
 10155.84691439191 -7120.0855370343552 -999923.07861924905
 9956.2065979341733 -7623.65922639162 -999921.37379404949
 9979.3936055092399 -7985.9858389139536 -999918.31453046552
 10150.222841353996 -8227.6247018490212 -999914.63594050682
 10415.155495974159 -8365.8143676170494 -999910.76486152562
 10735.910668280489 -8415.2188098795796 -999906.9578288293
 11084.856902545747 -8388.500246698075 -999903.37483731937
 11441.585137635884 -8296.6981762759078 -999900.12247669511
 11790.282840335934 -8149.4189159058014 -999897.28282553016
 12117.693171122291 -7954.8679461083366 -999894.9352747869
 12411.48955368962 -7719.7629463974599 -999893.17438769934
 12658.922297058616 -7449.1684306742982 -999892.12496947299
 12845.555930664546 -7146.2662261924452 -999891.95544911583
 12953.893050301564 -6812.0698597081 -999892.89044330537
 12961.607937567382 -6445.0601076727362 -999895.22347088007
 12839.044271781531 -6040.7232204666998 -999899.32923527923
 12545.50632397685 -5590.9381895018651 -999905.6713916749
 12023.762854262832 -5083.159033430321 -999914.79168030375
 11192.107404812716 -4499.2939106919575 -999927.24389634689
 9933.525659115845 -3814.2093425461558 -999943.38683501002
 8082.559338496465 -2993.9029611566139 -999962.85369987553
 5414.047965649801 -1994.0758944036056 -999983.35573446075
 1649.0604227915132 -762.26581283711391 -999998.34977391467
 -3471.1016765634749 745.33635135052759 -999993.69794357929
 -9863.5095962014548 2496.8181874567531 -999948.23719899845
 -15865.247478402071 4131.8199599795298 -999865.60196171724
 -0 0 -0
 36399.952188312745 1952.9733955531465 -999335.39383712655
 30197.903306142329 516.15784118931685 -999543.80605203891
 23540.430735905273 -1395.4701527104139 -999721.91172536614
 18322.984204684217 -3060.7532284261024 -999827.43513043784
 14690.627231849598 -4428.1786301355069 -999882.28142394591
 12318.675602648669 -5538.9004678492247 -999908.78124607168
 10863.282201037573 -6435.6852010140292 -999920.28235045541
 10051.669851582374 -7152.5799869637103 -999923.89937070932
 9684.3221069063984 -7715.9045925687396 -999923.33642217214
 9619.1729326884961 -8146.4767533358417 -999920.55005815276
 9755.7437097636339 -8461.3289705995394 -999916.6122115989
 10022.929370334557 -8674.8509961267337 -999912.14006383205
 10370.287373243016 -8799.5379748228479 -999907.50835826097
 10761.893431673709 -8846.4804762663716 -999902.95600770588
 11171.935168633632 -8825.6669454818839 -999898.64259711618
 11581.453478125162 -8746.1365269079688 -999894.68196964986
 11975.874764393586 -8616.0125257641848 -999891.16545341222
 12343.097118014988 -8442.4457776007348 -999888.18027958879
 12671.9763012936 -8231.5014359062716 -999885.82518242055
 12951.057227798505 -7988.0100518170611 -999884.22420402954
 13167.396514887692 -7715.3995958345176 -999883.53935750748
 13305.269442595787 -7415.4982567308234 -999883.98336540244
 13344.511836006192 -7088.2939045302646 -999885.83352969924
 13258.154848285803 -6731.6029678675595 -999889.44731480302
 13008.9210062814 -6340.5975185862444 -999895.27691521775
 12544.028131657904 -5907.0943190649705 -999903.8721771898
 11787.694934599276 -5418.4998988254492 -999915.84151216201
 10630.883342009085 -4856.2651980073842 -999931.69817127765
 8918.6510483934853 -4193.7661123780745 -999951.43381529872
 6438.2680572724494 -3393.7673800965899 -999973.51517297316
 2919.6036449833059 -2406.6341308271062 -999992.84198773978
 -1916.1217138082518 -1174.2978617243409 -999997.47474786639
 -8151.0346072663251 335.36609987754048 -999966.72352854337
 -15039.238823537089 1927.8654221545867 -999885.04570801661
 -20232.715698663604 2451.7048970942892 -999792.29160788935
 35033.134231738746 -494.80298915986407 -999386.02885766956
 28538.086238062315 -1631.672262220854 -999591.37415220705
 21960.558305267525 -3049.9690088716688 -999754.18557161617
 16997.505189882948 -4322.7123919930846 -999846.18765832961
 13620.527171167545 -5390.0408035848477 -999892.70859413466
 11467.854348510155 -6273.2213874371409 -999914.56385536538
 10194.462075292366 -7000.2610548179437 -999923.53172038123
 9534.3626229619204 -7593.70760417569 -999925.71300781949
 9294.8341418380624 -8070.5511103811823 -999924.23326122598
 9338.9731505034524 -8443.9445689444492 -999920.73854911665
 9569.9621796176925 -8724.674132698161 -999916.14442670078
 9919.2900957027141 -8922.1118173617597 -999910.99784166587
 10338.391659515602 -9044.7672255231428 -999905.65047094831
 10792.750131931305 -9100.5751269286484 -999900.34307272278
 11257.653428279367 -9097.0136574787284 -999895.24930454814
 11715.062054246355 -9041.1101029704096 -999890.50182966073
 12151.232234249712 -8939.3731024393328 -999886.21110790642
 12554.880052565262 -8797.6834775826355 -999882.48097078572
 12915.720419866395 -8621.1677519920813 -999879.42254685273
 13223.247753747299 -8414.0752759425886 -999877.16698407196
 13465.598335953455 -8179.6614528200034 -999875.87769681308
 13628.313461141264 -7920.0738456200133 -999875.76303383044
 13692.755237652567 -7636.2109462665567 -999877.09081485914
 13633.863756504054 -7327.5196554920722 -999880.20543201454
 13416.836705080577 -6991.6651771738934 -999885.54600558127
 12992.21652988049 -6624.0058761478358 -999893.65677345591
 12288.788938872503 -6216.7756643406337 -999905.16418646206
 11203.803813333676 -5757.908985420765 -999920.65748449659
 9590.669548531263 -5229.5334475438767 -999940.33373873448
 7246.4995320344151 -4606.5890511985854 -999963.13311133895
 3908.4442428027951 -3857.411519589366 -999984.92210631305
 -713.90038695426574 -2952.7856640782488 -999995.38569088397
 -6793.3625877154063 -1904.7406484573073 -999975.11078417033
 -13927.871951524909 -886.33261413311391 -999902.60965626023
 -19921.889166322002 -372.37307853959095 -999801.47012811247
 33583.779782025842 -2629.1966422549381 -999432.44747234834
 27083.104341657196 -3384.8447849238764 -999627.45474751794
 20694.0163956387 -4354.3464542934662 -999776.37367181899
 15959.314219780386 -5272.1453102803407 -999858.74240987725
 12782.256109791138 -6071.5380783502169 -999899.87016406131
 10794.062026721353 -6753.3982405968027 -999918.93663294881
 9656.3688387274742 -7331.1471885637375 -999926.50170987565
 9110.6265602915664 -7816.7761910414756 -999927.94465084223
 8969.6846807526308 -8219.1749885071367 -999925.99222104251
 9100.3112083062879 -8545.0801109911899 -999922.07993513602
 9408.0049304382846 -8800.1118874462918 -999917.02029418282
 9825.7246165745928 -8989.4409254847051 -999911.3186116087
 10305.888132706126 -9118.124754548855 -999905.31975320389
 10814.691768511775 -9191.2280972472199 -999899.2768114279
 11328.003064208049 -9213.811113620377 -999893.38533232617
 11828.306574093487 -9190.8420077573101 -999887.8034993615
 12302.381997569708 -9127.0717294525602 -999882.66709591041
 12739.495975288697 -9026.8994995219309 -999878.1027343889
 13129.962350018477 -8894.2530399266052 -999874.24026801938
 13463.930233432919 -8732.4958216709183 -999871.22475816542
 13730.261783546497 -8544.36765656034 -999869.2282957331
 13915.316822944851 -8331.9444070485861 -999868.46267902397
 14001.420953754134 -8096.5975261012918 -999869.19410479709
 13964.709396859445 -7838.9099595164871 -999871.76096842939
 13771.953500243982 -7558.5065950357393 -999876.59352284053
 13375.857320669016 -7253.7371320047068 -999884.22816771979
 12708.228894423812 -6921.170805210063 -999895.29367481871
 11670.455606943822 -6554.8898374171113 -999910.41292965121
 10121.173895203947 -6145.7392659679863 -999929.89340646169
 7862.7102413587418 -5681.1371227432355 -999952.95012748113
 4633.0750678945842 -5147.3073125209048 -999976.01963389397
 125.56226486951493 -4538.6202295229441 -999989.6925271427
 -5895.7250293577199 -3882.8335326661072 -999975.08170460723
 -13163.635150933787 -3284.6806266305935 -999907.96055576764
 -19475.608029197858 -2927.0459660966649 -999806.0477381628
 32430.702798417631 -4269.6415832046087 -999464.86665452737
 25988.695375382464 -4759.5394623555303 -999650.90631519537
 19755.18867218533 -5381.3773623099241 -999790.36467562092
 15187.403652455849 -5990.6570942394228 -999866.71851696132
 12151.196549138911 -6544.8396592497365 -999904.7522120591
 10276.484497066014 -7039.3761796667113 -999922.41751517041
 9232.4397424433701 -7477.6822967995213 -999929.42067121435
 8767.1478327242112 -7862.7205531053096 -999930.65496782446
 8697.6572809145255 -8196.1542790883705 -999928.5843563315
 8893.0599996016499 -8479.0582501025801 -999924.5066778966
 9260.0461302664808 -8712.5489655578913 -999919.16825120815
 9732.1700515291504 -8898.1072245095147 -999913.05049684655
 10262.166219127601 -9037.6749556508003 -999906.49981680152
 10816.448526720562 -9133.6174630453752 -999899.78571520234
 11371.091547981676 -9188.6131006810774 -999893.12812234764
 11908.823761593007 -9205.5072681388083 -999886.71285928763
 12416.717891111719 -9187.1593775204274 -999880.70349386393
 12884.38363166099 -9136.3066433890199 -999875.25249870529
 13302.511147958376 -9055.4634910728182 -999870.51250555459
 13661.644272640913 -8946.870312299161 -999866.64760226046
 13951.041385651937 -8812.4908673331993 -999863.84495538636
 14157.462208960909 -8654.0507999251604 -999862.32735739893
 14263.656704976162 -8473.0902537870206 -999862.367948186
 14246.268181693422 -8271.0029370242755 -999864.30797049205
 14072.755827310453 -8049.0182185101112 -999868.57678854116
 13696.833577849698 -7808.0958301391147 -999875.70747040771
 13051.805045799689 -7548.7006199232655 -999886.32729125628
 12041.163273138569 -7270.4700388797901 -999901.07043269207
 10526.138515503133 -6971.8580825665877 -999920.2936248614
 8311.2573510249422 -6650.078392554984 -999943.3481245914
 5133.5634474195385 -6302.1826330165622 -999966.9639645057
 675.95564591554955 -5929.0418950770927 -999982.19461456977
 -5325.597848075754 -5544.3634402184371 -999970.44858415879
 -12641.038151173741 -5186.6501148982534 -999906.64705013635
 -19041.535436397266 -4922.6264222537175 -999806.57513207605
 31659.947247687163 -5684.5633079145982 -999482.53285401221
 25282.561695563596 -5953.7412745662423 -999662.6156053578