# OOMMF OVF 2.0
#
# Segment count: 1
#
# Begin: Segment
# Begin: Header
#
# Title: Oxs_TimeDriver::Magnetization
# Desc: Oxs vector field output
# Desc:  MIF source file: /mnt/gpfs/work/plgrid/groups/plggspinsym/MF/switching-obrazki/p-ap/Anisotropy.mif
# Desc:  Iteration: 6800, State id: 47708
# Desc:  Stage: 0, Stage iteration: 6800
# Desc:  Stage simulation time: 1.00011e-09 s
# Desc:  Total simulation time: 1.00011e-09 s
# meshunit: m
# meshtype: rectangular
# xbase: 1.0000000000000001e-09
# ybase: 1.0000000000000001e-09
# zbase: 3.4999999999999998e-10
# xnodes: 35
# ynodes: 35
# znodes: 5
# xstepsize: 2.0000000000000001e-09
# ystepsize: 2.0000000000000001e-09
# zstepsize: 6.9999999999999996e-10
# xmin: 0
# ymin: 0
# zmin: 0
# xmax: 7.0000000000000005e-08
# ymax: 7.0000000000000005e-08
# zmax: 3.4999999999999999e-09
# valuedim: 3
# valuelabels: Magnetization_x Magnetization_y Magnetization_z
# valueunits: A/m A/m A/m
#
# End: Header
#
# Begin: Data Text
 -0 0 -0
 0 0 -0
 -0 -0 0
 -0 0 0
 0 0 0
 -0 0 -0
 0 0 0
 0 -0 0
 -0 0 0
 0 0 0
 0 0 0
 -0 -0 0
 0 0 0
 1300.4420452907486 -35094.052393718695 -999383.16792763409
 4119.7584314207852 -34824.722718309742 -999384.94399208319
 6831.2501298695561 -34590.125729332649 -999378.23531618493
 8914.5624608649487 -34525.471894388393 -999364.05897280539
 10590.854289309229 -34632.067116413076 -999344.01170601265
 12184.837099067845 -34885.518817453129 -999317.03193816647
 14029.836904330064 -35263.797778964254 -999279.55460053415
 16405.588205448963 -35726.578915980441 -999226.93530278374
 18993.647751163342 -36122.474674871752 -999166.85702062189
 0 0 0
 -0 0 -0
 -0 0 -0
 -0 0 0
 0 -0 0
 -0 0 0
 -0 -0 0
 0 0 0
 0 -0 0
 0 -0 -0
 0 -0 0
 -0 -0 0
 0 0 -0
 -0 -0 -0
 -0 -0 -0
 -0 -0 -0
 -0 0 -0
 0 0 -0
 0 0 -0
 -0 -0 0
 0 0 0
 0 0 -0
 0 0 0
 -3551.2587935401712 -32662.663022584089 -999460.12376945501
 -1039.1928584646532 -31894.454219331321 -999490.70224202378
 828.03048261677884 -30661.463711233177 -999529.4838115602
 2398.6650552690589 -30177.355495049873 -999541.68178284494
 4899.6924349672017 -29105.359099283614 -999564.34064333478
 7246.0560971972218 -28465.110854295381 -999568.52298133553
 9115.310555264783 -28221.309826071931 -999560.13765314897
 10663.389696968145 -28252.763247731426 -999543.93274584902
 12151.835200578436 -28496.490616899493 -999520.02627450076
 13860.432506325582 -28952.760163938747 -999484.68026760034
 16032.823630320725 -29688.035416127957 -999430.62246439594
 18590.565135861747 -30760.609400093079 -999353.87916256371
 20666.65116917776 -31436.73477642523 -999292.06002852251
 22435.349563332158 -33270.047359418648 -999194.55514863215
 24608.305831106096 -34481.274126750788 -999102.3336068826
 -0 0 -0
 0 -0 0
 -0 0 -0
 0 -0 -0
 -0 0 0
 -0 0 0
 -0 0 -0
 -0 0 0
 -0 0 -0
 -0 0 0
 0 -0 -0
 -0 0 -0
 -0 0 0
 -0 0 0
 -0 -0 0
 0 0 -0
 0 -0 -0
 -0 -0 0
 -8590.4342613688623 -29970.249702873436 -999513.8761277647
 -5694.4639813856829 -29011.795335579794 -999562.84885512386
 -2769.782435179905 -28164.577729053461 -999599.46221804537
 159.14294221493068 -26472.334809587865 -999649.53366830153
 2383.1167121770582 -24825.753918976199 -999688.95297341875
 4199.3783463271975 -23430.578076017548 -999716.6464716529
 6121.7352627091577 -22218.247183489242 -999734.40165349236
 7906.2873711975617 -21468.853802441536 -999738.25521303969
 9415.358110206811 -21136.365197520827 -999732.26670838904
 10727.376078325715 -21111.914727701846 -999719.56590786227
 12010.064415216582 -21335.963582105713 -999700.22257212957
 13449.83456841814 -21818.861238896257 -999671.46565475187
 15190.673615453949 -22643.857125896655 -999628.18045990018
 17198.395571178167 -23913.321401942059 -999566.08998570219
 19197.938336420659 -25512.5909841332 -999490.1434556056
 21361.086281542237 -27506.991782918987 -999393.35068626865
 24158.724261591968 -29450.966983790451 -999274.23492541409
 27177.486665354278 -30588.585237863947 -999162.51064163749
 29859.76499711661 -32100.36430598178 -999038.51829933992
 -0 0 -0
 -0 -0 -0
 0 0 -0
 -0 0 0
 -0 0 -0
 0 0 -0
 0 -0 -0
 -0 -0 -0
 -0 -0 0
 0 0 0
 0 0 0
 0 0 -0
 -0 0 0
 0 0 0
 -0 -0 -0
 -11125.707409082537 -26988.628085418259 -999573.82548199734
 -7821.4013417650267 -26122.535112423659 -999628.15028407017
 -3976.4354884894447 -24088.008389563711 -999701.93348449108
 -708.44609980406142 -22089.454222832326 -999755.74722842255
 1996.439294634127 -20183.836925560514 -999794.29232072807
 4083.0384641048795 -18577.305169026407 -999819.08990054671
 5745.4098529693556 -17276.839672880589 -999834.23679955036
 7231.9325767675882 -16271.101060150559 -999841.462643701
 8560.9461700211214 -15625.354645457397 -999841.26664830046
 9723.1965762653253 -15313.770217602023 -999835.46040839213
 10775.511158893609 -15275.774551019102 -999825.25426753017
 11821.226849918821 -15474.81546441468 -999810.37636249058
 12974.81476384429 -15920.154731385323 -999789.07918379107
 14323.300393279615 -16665.485829053778 -999758.52316843264
 15881.904526964887 -17771.549500139907 -999715.92822009232
 17624.167175690247 -19229.253638533315 -999659.75438439474
 19691.991133133997 -21028.371644248338 -999584.9303942133
 22323.544416415953 -23093.733813317231 -999484.03630235547
 25517.134403943004 -25282.164166316983 -999354.63576594205
 29233.120528927215 -27537.004583200694 -999193.24359341338
 32655.245060129004 -28517.766032669966 -999059.74395456898
 -0 -0 -0
 0 -0 0
 -0 0 -0
 -0 -0 -0
 0 -0 -0
 0 -0 -0
 0 0 -0
 0 -0 -0
 -0 0 -0
 0 0 -0
 -0 0 0
 -0 0 0
 -0 0 -0
 -12348.069850913043 -25194.479610471095 -999606.30418586009
 -9398.199373662861 -23708.966620514329 -999674.7264737268
 -5345.9885096203025 -21187.438558497244 -999761.22792103945
 -1579.8408379065888 -18692.641593092536 -999824.02914372832
 1435.5498721839203 -16595.120429667579 -999861.26096298452
 3769.7993251643747 -14873.020898098499 -999882.28400267859
 5549.0409159069204 -13507.928479126565 -999893.36632118747
 6939.4751220423259 -12454.219670970677 -999898.3628836571
 8097.1635115100162 -11679.737432342485 -999899.00473826833
 9096.8679371546204 -11180.100993432443 -999896.12077230844
 9980.6616559653121 -10932.943427751756 -999890.42256685032
 10801.593667350628 -10906.040791342108 -999882.18498406268
 11628.978458611015 -11080.164102608325 -999870.99008995574
 12536.392053565924 -11461.557810487724 -999855.7253758345
 13585.445905891538 -12080.236141688436 -999834.73812140524
 14816.572738549807 -12971.715449940855 -999806.08308339934
 16275.086326273529 -14153.48519285747 -999767.37315335905
 18074.937992214538 -15642.165188820236 -999714.26882123831
 20378.989595223684 -17456.262003041229 -999639.9230222645
 23321.841086774904 -19615.970689402871 -999535.54485182557
 27008.877377112509 -22138.963913716172 -999390.00736431999
 31151.997718347717 -24694.896813669642 -999209.54514532036
 34420.321611597145 -26358.205341479024 -999059.80124881945
 0 -0 -0
 -0 0 -0
 0 0 0
 0 0 -0
 0 -0 0
 -0 0 0
 -0 0 0
 0 -0 0
 -0 -0 -0
 -0 -0 -0
 0 0 0
 -13110.015268773608 -24024.387404434536 -999625.40799516195
 -10305.217652932855 -22264.425277582366 -999699.00362868456
 -6347.5074549258807 -19370.808899466771 -999792.21886934573
 -2463.2864410728598 -16516.406108274758 -999860.56055290811
 802.43433411842125 -14127.100812448234 -999899.88554943551
 3346.2785267485033 -12251.386086812654 -999919.34972725331
 5273.2278909850547 -10802.928384610716 -999927.74229237519
 6725.9787462083641 -9700.5345794503028 -999930.32799229503
 7843.937709271132 -8879.2387170937618 -999929.81341743062
 8743.4054736675935 -8295.4924439313963 -999927.36619508301
 9501.8445841962603 -7924.3541853983888 -999923.45685069414
 10173.0491971805 -7744.0983923684835 -999918.26566480973
 10806.088107844014 -7735.1082478165536 -999911.69438115892
 11452.462333255087 -7887.0030748403997 -999903.31347035873
 12164.314992935188 -8203.7969603809142 -999892.3577846695
 12990.269053601469 -8702.9124722821362 -999877.74863951001
 13976.49628618956 -9408.0590001641995 -999858.06291563762
 15181.539740700176 -10343.040744942697 -999831.25694251538
 16698.877786939953 -11538.885754816745 -999793.97957588942
 18655.805734777852 -13042.37899954718 -999740.89506352495
 21194.819817009055 -14922.850284924269 -999663.98762399075
 24449.002365533823 -17266.423527922409 -999551.95808016136
 28400.243610952301 -20074.334639991277 -999395.0406378851
 32595.925313145388 -23050.11698603176 -999202.78110096871
 35794.861883828278 -25112.095304109658 -999043.59791360202
 0 -0 0
 0 0 0
 0 -0 -0
 0 -0 0
 0 -0 -0
 -0 -0 0
 0 -0 -0
 0 -0 0
 0 0 -0
 -14038.697826256708 -22883.730631228787 -999639.55995935877
 -11119.431676248118 -21156.57757919556 -999714.33793075732
 -7113.4763268226689 -18182.987768045852 -999809.37053539115
 -3183.135503476643 -15157.989273905965 -999880.04431008548
 188.96018850688887 -12570.646347343982 -999920.96844923578
 2882.2882637588814 -10523.11665169035 -999940.47644362296
 4943.8289382417888 -8961.4864503943681 -999947.62378638051
 6490.1059667010059 -7788.6336941506852 -999948.60653421562
 7646.87312432818 -6918.7072269425989 -999946.82699718024
 8526.7979237398995 -6287.236186162082 -999943.88061446091
 9221.213978017262 -5850.1915171107476 -999940.3704581511
 9797.8086884386794 -5579.1147477784061 -999936.43619158922
 10307.514296588055 -5454.03578384507 -999932.00200948375
 10793.541695916627 -5461.0559578669554 -999926.8354862188
 11296.781519995313 -5593.7629206219917 -999920.5431151404
 11857.420195237242 -5854.78192754869 -999912.55773437221
 12515.574161530885 -6255.3215184961828 -999902.11088691442
 13314.535583921775 -6813.0007028957552 -999888.14682623709
 14309.125212881474 -7551.1532426976555 -999869.10594354686
 15575.824889003205 -8503.3788699649449 -999842.53071512282
 17215.86740989254 -9720.6314896212734 -999804.54251456971
 19350.934690260969 -11278.000742730261 -999749.14254819951
 22108.628089644633 -13273.641537967096 -999667.45420880604
 25570.364170967827 -15794.330774218704 -999548.24575483019
 29667.416148077926 -18821.573558352608 -999382.60580614686
 33973.818538668274 -21982.85553621182 -999180.93142151961
 37298.810488423507 -24138.402767461277 -999012.58062548167
 0 -0 0
 0 -0 0
 0 0 -0
 0 0 -0
 0 0 -0
 0 -0 0
 -0 0 -0
 -15800.100891543156 -21201.678366995096 -999650.36169964913
 -12432.789755236578 -19863.522131031248 -999725.39540988544
 -8101.0512483144785 -17112.882186522904 -999820.7450498027
 -3953.2319336832088 -14158.440778133659 -999891.94941854116
 -426.8670952472973 -11537.771257154618 -999933.3465881116
 2399.4544647129387 -9406.8003528725512 -999952.87625237263
 4582.9699516681367 -7754.3425129327998 -999959.43245644413
 6228.441896445489 -6507.5692447429738 -999959.42820399848
 7451.4468921715688 -5582.2423997042079 -999956.65631516441
 8359.071513922825 -4905.978253106945 -999953.02754719683
 9042.2850709828144 -4423.9808459312671 -999949.33145343431
 9574.1226196978878 -4097.7623612118105 -999945.7707894434
 10011.024195662771 -3901.4825920497938 -999942.27724811085
 10397.137459600632 -3817.9535696347007 -999938.65950026468
 10769.406600892426 -3836.4891005181535 -999934.64848101267
 11161.428253870432 -3952.5475321372714 -999929.8974864888
 11605.803048929192 -4167.8984116187557 -999923.96408847987
 12136.153908965263 -4490.4439419967348 -999916.27133550623
 12790.328587522992 -4933.9105165716883 -999906.02759541245
 13615.546618712258 -5518.7059489795311 -999892.07456351153
 14674.143350051027 -6275.1990368420929 -999872.63758640282
 16047.141075175648 -7248.6985886436187 -999844.96079746494
 17834.698836186108 -8504.3512702478183 -999804.78070816153
 20151.390910392125 -10127.781752892688 -999745.64239167469
 23109.500151144683 -12212.101667215189 -999658.34942525916
 26783.867832128759 -14818.268792025194 -999531.41187956557
 31130.172840348248 -17874.417234121629 -999355.50108430919
 35761.804053511878 -20946.668219666153 -999140.79611500888
 39506.486305038328 -22856.987711923917 -998957.85479296709
 0 0 0
 0 0 0
 -0 0 0
 0 -0 0
 -0 0 -0
 -18931.463304972505 -18276.389464605589 -999653.72669003275
 -14925.403971693582 -17916.391827333369 -999728.08064001636
 -9882.7865697733414 -15790.500093504377 -999826.48026365729
 -5187.2368616216581 -13170.725945157066 -999899.80725661665
 -1286.8376315682835 -10701.693927075261 -999941.90721061442
 1790.0115586417171 -8613.0611497982027 -999961.30476946442
 4148.5804169024977 -6944.6264552055745 -999967.28018666804
 5921.3326585806799 -5658.2264426623524 -999966.46058408893
 7234.3910516897113 -4689.7213289254532 -999962.83435934188
 8198.254311470464 -3973.6412536797488 -999958.49853953009
 8905.4590891233984 -3454.2706399923454 -999954.37936575757
 9431.1306970862042 -3088.7038309032719 -999950.75562870561
 9834.8716832403697 -2845.9993031466943 -999947.58641987841
 10163.459015453491 -2704.8784845406281 -999944.69233714393
 10454.222020374445 -2651.3140011404571 -999941.83819661022
 10738.470441474026 -2676.9233134930928 -999938.75779177144
 11044.36196602686 -2778.2455866579025 -999935.14960732497
 11399.12407605165 -2956.5108966919661 -999930.6571025895
 11831.196848833959 -3217.5897116632927 -999924.83212368074
 12372.931507672094 -3572.2634260620043 -999917.07131137699
 13064.127751371094 -4037.3017574043147 -999906.5100101186
 13955.954229860763 -4637.7866704502485 -999891.85529052746
 15114.401804256575 -5410.3785531551557 -999871.13302765728
 16622.870772060141 -6406.4731657768052 -999841.30604254978
 18583.290143670336 -7693.0295821101117 -999797.71885281114
 21114.278102689765 -9346.9912334898636 -999733.3749630868
 24343.621068443743 -11436.873288361883 -999638.22758168983
 28382.317183433021 -13976.999711817401 -999499.41848425055
 33235.960021403604 -16820.530687727321 -999305.97952220775
 38539.057252758037 -19414.367877535988 -999068.47782621207
 42964.272291245637 -20459.105837466763 -998867.1064234795
 0 0 0
 -0 -0 -0
 0 -0 -0
 0 0 -0
 -17905.515250345314 -15765.162532227803 -999715.3855842934
 -12873.529452240324 -14253.023196294189 -999815.54477273859
 -7362.5132622189185 -12081.963216048835 -999899.90477212751
 -2755.3139027961706 -9886.9830553048469 -999947.3265184327
 816.13776257523432 -7945.2291654180763 -999968.103117625
 3502.9414175850311 -6340.666181388975 -999973.76233269286
 5492.6119616624228 -5068.6459539955931 -999972.06963096326
 6949.8777919759077 -4088.6437476637211 -999967.49056705914
 8007.7124412263529 -3349.9013085624629 -999962.32664169976
 8770.9338282743429 -2803.7471781351869 -999957.60396205855
 9321.5842112616119 -2409.0354719994184 -999953.65123383957
 9723.7136498622804 -2133.643851165873 -999950.44725064852
 10027.31376233184 -1953.9220590503903 -999947.81622207596
 10271.694617060102 -1853.2930788392987 -999945.52731359203
 10488.513056326692 -1820.7691660522601 -999943.33634137036
 10704.457829071949 -1849.8375083777303 -999940.99460107053
 10943.516337533814 -1937.81020195258 -999938.24026376323
 11228.894433926478 -2085.5693205382277 -999934.77903831343
 11584.921750380496 -2297.5716779961604 -999930.25294388516
 12039.267264421664 -2582.206782526011 -999924.19125245104
 12625.604315077479 -2952.7031061470379 -999915.93429650168
 13386.689997278898 -3428.7115126300273 -999904.51567551191
 14377.70340150116 -4038.3998335252572 -999888.48026751622
 15669.929836446119 -4820.421234645707 -999865.59938725829
 17354.961892179803 -5824.6095803606795 -999832.42556988378
 19549.4738623579 -7109.4401179222114 -999783.61355491076
 22399.458913736293 -8732.9890148637005 -999710.95779892197
 26076.496974778849 -10730.580392145415 -999602.35641477536
 30734.858678855649 -13063.635976478232 -999442.19936775963
 36301.972265032804 -15503.185456103596 -999220.60529713961
 41524.871136690745 -17382.054338721249 -998986.26079843915
 -0 0 -0
 -0 -0 -0
 0 0 -0
 -21341.38394499947 -13311.571757548769 -999683.62364732951
 -16891.495312377247 -12940.347542221047 -999773.58676432259
 -10773.068168589954 -11115.521342587379 -999880.18591605127
 -5197.0734742197164 -9131.5942598064539 -999944.80068330688
 -822.31394217989782 -7343.8145425435114 -999972.69572111068
 2432.6698813789999 -5838.571437683182 -999979.99640033569
 4802.5631990561214 -4620.5132930610853 -999977.79287523567
 6509.2401570263964 -3662.1495204965663 -999972.10883777519
 7728.906864854478 -2924.614359016462 -999965.85473181307
 8594.5740977556561 -2367.9249824772082 -999960.26232413633
 9205.5331100868407 -1956.0165233287398 -999955.71509918361
 9636.1993619096156 -1658.8780048437102 -999952.19475014054
 9942.9032136643564 -1452.9781964771596 -999949.51249052794
 10168.862359967339 -1320.7663914488483 -999947.42352507869
 10347.88942978418 -1249.766046795791 -999945.67815915763
 10507.278525350583 -1231.6317636402202 -999944.03852475144
 10670.12351140379 -1261.4018090056143 -999942.27699889138
 10857.215536787049 -1337.0140294649498 -999940.16484201315
 11088.705904179771 -1459.1197452587605 -999937.45382945798
 11385.737928616618 -1631.1086590237132 -999933.85004027316
 11772.276137715329 -1859.410381139453 -999928.97553154838
 12277.282985775413 -2154.1627137985402 -999922.31093494943
 12937.358103773717 -2530.2726481155405 -999913.10746765428
 13800.008004158302 -3008.7668715949339 -999900.24857532547
 14927.866051317545 -3618.0763722869287 -999882.02721046971
 16404.396688040149 -4394.7129539226762 -999855.78073407849
 18341.675280444884 -5382.453071235077 -999817.28938183631
 20890.079292395032 -6628.6321678060458 -999759.80406432692
 24245.825806747987 -8174.9743987573529 -999672.60126729915
 28637.443195191514 -10037.546859608923 -999539.46620445338
 34215.55301396102 -12159.664128287563 -999340.5017811677
 40567.006053197903 -14247.897669054566 -999075.23011627712
 45690.04336793215 -15113.824336147014 -998841.32486144791
 -0 -0 0
 0 0 -0
 -20591.681155369817 -11178.465934151558 -999725.47460118006
 -15153.102312223093 -10192.496553409637 -999833.23434677045
 -8771.3991481570756 -8517.7381491754531 -999925.25255331257
 -3385.3544926423333 -6850.2471764456859 -999970.80631815502
 700.38203119190416 -5421.5147021153025 -999985.05821004405
 3668.3888754641571 -4259.2830908498181 -999984.20059049444
 5782.4384853759302 -3337.4766653705487 -999977.71207895968
 7272.1661737525083 -2619.2650849234969 -999970.12707858253
 8313.5076965705048 -2068.4622844508099 -999963.3028534383
 9035.6053691652687 -1652.8689334232754 -999957.81204003899
 9532.304591336424 -1345.3178978696187 -999953.66157084075
 9872.1823216741595 -1123.8344914200882 -999950.6372877832
 10106.059401213179 -971.30555550322231 -999948.46073630068
 10272.360094140973 -874.91627289456255 -999946.85515761864
 10400.93528750895 -825.48393075313879 -999945.56807929568
 10515.8449836408 -816.82280448549807 -999944.37335523136
 10637.473885974767 -845.23354925494993 -999943.06324388902
 10784.202053978037 -909.17967165513733 -999941.43547429016
 10973.875029673964 -1009.151132819784 -999939.27599670971
 11225.214283762325 -1147.7022879050758 -999936.33664535941
 11559.376120245008 -1329.6747949733567 -999932.30410295795
 12001.821930752923 -1562.6688926118388 -999926.75448568456
 12584.708825809475 -1857.7568596336625 -999919.08364788222
 13350.080572675537 -2230.3883986925757 -999908.39616251551
 14354.273525774952 -2701.3162957965351 -999893.32317093574
 15674.200045913054 -3297.3546680519776 -999871.71522406489
 17416.211890265651 -4051.6445009935514 -999840.1170888429
 19727.663031253531 -5002.9792354174406 -999792.87330431351
 22808.162454493075 -6193.111497581448 -999720.67753719492
 26905.828802076725 -7658.1342746757418 -999608.63809588226
 32242.118522968245 -9396.6396071688978 -999435.91538289422
 38669.35578143887 -11243.619331368738 -999188.80195275391
 44463.352859147439 -12538.52276282887 -998932.32788785489
 0 0 0
 -0 -0 0
 -19157.617979382114 -9624.0531628787703 -999770.1552227264
 -13344.197786154009 -8148.3391122848061 -999877.76100639184
 -7029.5094095828708 -6520.4073896608943 -999954.03408603405
 -1910.2737267189179 -5110.0476789172344 -999985.11902278254
 1890.6619937508847 -3972.512190711549 -999990.3222252304
 4609.7773670888864 -3078.6099241772531 -999984.63593875314
 6518.0806063885102 -2384.3704641236545 -999975.91441129136
 7841.0057916446867 -1849.8698111793012 -999967.54777835531
 8748.4514195370884 -1442.3453777581792 -999960.69134620065
 9363.7345090736126 -1135.5802195441315 -999955.51447732339
 9775.4085335900763 -908.8338550357264 -999951.80654320808
 10047.358824438723 -745.91231092741691 -999949.24580974481
 10226.332896678829 -634.40613942077368 -999947.50844448654
 10347.318262118884 -565.0587021388352 -999946.30541516875
 10437.322159751702 -531.22298636563141 -999945.38856293168
 10518.061079030285 -528.41162952971911 -999944.54404846241
 10607.927315546736 -553.939711612628 -999943.58092287579
 10723.522149930799 -606.7009138286918 -999942.31732970534
 10880.976781330246 -687.06972188685859 -999940.56437344383
 11097.210918145671 -796.93410650205283 -999938.10648753063
 11391.296005098195 -939.86152802473589 -999934.67538416327
 11786.142621062048 -1121.4341588161881 -999929.91215761891
 12310.719032073725 -1349.7417566032786 -999923.30925631674
 13003.139761446471 -1636.0029993843361 -999914.11723734078
 13915.047400805606 -1995.3180073528295 -999901.19019925315
 15117.953441318592 -2447.4834623250799 -999882.72177713318
 16712.225119778504 -3017.8826584928279 -999855.78655914438
 18838.899121224553 -3738.4784354979297 -999815.54281721753
 21691.964823556569 -4648.6545897618953 -999753.89405223052
 25519.853222244226 -5793.8190323522294 -999657.52573195565
 30573.45411564899 -7212.08020441797 -999506.50313170231
 36836.851000535404 -8872.3597236488404 -999281.90599114669
 42837.509854345364 -10433.488742389151 -999027.57222318032
 -0 0 -0
 -23090.092559247394 -8412.6621588288726 -999697.99176601681
 -18394.392528093929 -7875.3404125337374 -999799.79262695834
 -11746.281709275847 -6322.6300938681907 -999911.02064868889
 -5578.3472063184154 -4880.8117885373886 -999972.52948205068
 -739.76488438358297 -3736.3818944321947 -999992.74607281759
 2805.4446854202929 -2856.1575951462592 -999991.98588984134
 5317.8662652125786 -2183.769868600757 -999983.47558724508
 7063.8593581568957 -1670.9218500835254 -999973.65460852988
 8259.7637039085967 -1280.5298192043624 -999965.06766333489
 9067.4772379502811 -984.82978135892552 -999958.40461833251
 9604.08124068498 -763.02233164394079 -999953.58863321436
 9953.3090587541592 -599.44026002833596 -999950.28491928324
 10175.237147201016 -482.24478419530209 -999948.11464843841
 10313.550988390056 -402.53426874942238 -999946.7328973941
 10400.742721237937 -353.72861908462693 -999945.84824724903
 10461.782985480657 -331.12133866144802 -999945.21922724554
 10516.715271765032 -331.5360116617648 -999944.64285967639
 10582.511691705102 -353.07994548034918 -999943.94131913583
 10674.498078776018 -394.99172157648502 -999942.9479086824
 10807.563636960798 -457.55308777008474 -999941.49189510336
 10997.304734091518 -542.11629076163047 -999939.38086191658
 11261.275170750443 -651.24137897578248 -999936.37775920273
 11620.552816437645 -788.92742845879911 -999932.16787227755
 12101.840467386941 -960.95145999533793 -999926.30829956348
 12740.413497998537 -1175.3202391787136 -999918.14689315204
 13584.387389733385 -1442.8873819230498 -999906.6868939565
 14700.868297944184 -1778.1470470869469 -999890.35532120499
 16184.690245658023 -2200.3245725646493 -999866.59828870557
 18169.961729941773 -2735.0428925707947 -999831.17176406772
 20842.833852749638 -3416.7693379929333 -999776.92610115674
 24447.923926751799 -4291.8147940026656 -999691.89220551634
 29261.525272504889 -5419.4193229709863 -999557.09843556629
 35440.222056695318 -6855.884363114772 -999348.28138651024
 42454.392161132411 -8515.695917745792 -999062.11393950146
 48101.212045108201 -9491.2458645916631 -998797.37166841293
 -22981.698940947306 -5780.6653072526706 -999719.17327937321
 -17363.304292485009 -5344.2741492292171 -999834.96358042245
 -10462.456952898059 -4376.8411351235973 -999935.68806008075
 -4470.1400884724681 -3396.6895831518009 -999984.24004954449
 134.66962468028859 -2588.6222439390217 -999996.64044384181
 3478.1533897042341 -1962.6148728907208 -999992.02526413125
 5832.0866825194962 -1486.446467920257 -999981.88845689874
 7456.4653525325548 -1125.8655271661319 -999971.5663713949
 8559.0823704891154 -853.20439182514872 -999963.00639135693
 9294.6613453549162 -647.69552219156651 -999956.59393844963
 9774.8921606929489 -494.05110812771733 -999952.1025512917
 10079.543810118483 -381.02763979777546 -999949.12751325371
 10265.737125398975 -300.30818372441951 -999947.26083742408
 10374.890908664041 -245.72748498444514 -999946.1491783628
 10437.710631425298 -212.77955809929878 -999945.50297585421
 10477.738085529389 -198.27314724997825 -999945.08733848482
 10513.848173347651 -200.0564379976897 -999944.70795840002
 10562.02774656061 -216.8492984550434 -999944.19671612803
 10636.725829783865 -248.14048936515175 -999943.39764304645
 10751.955952593549 -294.13277869041849 -999942.15279140114
 10922.372075013689 -355.75756095838022 -999940.28582951508
 11164.466655483999 -434.77727839577909 -999937.58087843505
 11498.043490733067 -533.93732480310132 -999933.75275906059
 11948.214103317174 -657.18664327933948 -999928.40157956153
 12548.244201430192 -810.0162130180131 -999920.93959532434
 13343.651488894977 -999.94289354131774 -999910.46953172376
 14398.118812686103 -1237.1557786482688 -999895.57635796908
 15801.887926693369 -1535.4604637092475 -999873.96340694698
 17682.907488865363 -1913.734139315952 -999841.81369073782
 20219.557010292447 -2397.8962815895538 -999792.68831479759
 23649.054166715527 -3022.6810913256063 -999715.7524196764
 28250.566805625185 -3829.2715756955458 -999593.53847169329
 34235.130966823606 -4841.2684538539888 -999402.08020968316
 41335.601532351189 -5954.2479247610336 -999127.57692779601
 47543.020319285039 -6679.0757551030465 -998846.86071788671
 -22820.368866088465 -3340.7349481519486 -999733.99974934419
 -16770.947062514104 -3123.9481866345109 -999854.47755278565
 -9688.7205432351002 -2642.3914359127139 -999949.57195937377
 -3756.2673624966155 -2097.0446281014938 -999990.7463868499
 716.40545128990766 -1612.7495841850537 -999998.44289979187
 3930.7397349902326 -1223.5072157427676 -999991.52612171101
 6178.4831761181294 -923.13786606577514 -999980.48689068051
 7720.2755068023034 -694.90907328809408 -999969.95677244163
 8759.5765326630608 -522.50772167677451 -999961.49766110943
 9446.4553545295767 -392.84869684018463 -999955.30407670536
 9888.8180022248143 -296.12047142119133 -999951.06059806002
 10163.606435448159 -225.1191612944441 -999948.32387758337
 10325.854601553227 -174.55421506193466 -999946.67170683341
 10415.415385078737 -140.53065302877121 -999945.74821511807
 10461.792444301203 -120.22831595453982 -999945.26672413631
 10487.582021926646 -111.67261321046978 -999944.99756364652
 10510.891638775034 -113.5477963306586 -999944.75260579051
 10547.063696396515 -125.06076080843226 -999944.37035626662
 10609.955132928455 -145.88005065511939 -999943.702200823
 10713.002768051172 -176.13292497856702 -999942.59862698347
 10870.252261376703 -216.41810099255983 -999940.89364270901
 11097.503267558504 -267.8458200300031 -999938.38494171388
 11413.715163770046 -332.12927850777288 -999934.80627304036
 11842.945279773268 -411.72051462449235 -999929.78510159301
 12417.114253266973 -510.0512811975629 -999922.77457877318
 13179.954709656535 -631.86684219429958 -999912.94097943627
 14192.727320811342 -783.64639622970697 -999898.97109134146
 15542.364822721614 -974.22391707981126 -999878.73553920363
 17352.370220090474 -1215.6522240147358 -999848.69727244985
 19795.742939759286 -1524.0248715731918 -999802.88352737506
 23105.36610477588 -1919.0201351233454 -999731.19358099729
 27565.140006496735 -2417.9115072552249 -999617.0850682602
 33425.647725672963 -3012.6074371780282 -999436.66646293725
 40546.110831784186 -3611.3896136532799 -999171.14187784411
 47008.493012910862 -3981.9518196387971 -998886.55294000276
 -22708.846251106705 -1503.799100925439 -999740.98990198819
 -16492.449997669861 -1419.78208740326 -999862.98226902017
 -9306.9813547353333 -1227.7269377952291 -999955.93542147079
 -3377.9121131549141 -993.43189355778759 -999993.80138220289
 1039.0405937993928 -772.94194882384636 -999999.16147734248
 4187.5462726651658 -589.50348660359327 -999991.05843095097
 6376.8793891101823 -445.50664323426611 -999979.56825781567
 7871.7538990347584 -335.34300608588643 -999968.96103610191
 8874.6681895201709 -251.97780165649593 -999960.58760918828
 9533.5016187846068 -189.29187254744235 -999954.5372243037
 9954.0816109192583 -142.57012597186974 -999950.44673875824
 10211.712263520778 -108.32854923422835 -999947.85323914397
 10360.19913248087 -83.994726713501933 -999946.3281690781
 10438.472250270859 -67.678147982420683 -999945.51537408726
 10475.346726187961 -58.021649497626086 -999945.13036688883
 10492.888220140196 -54.085280389413583 -999944.94667035656
 10508.777282475185 -55.246373031381154 -999944.77974929486
 10537.977364433498 -61.12569529139757 -999944.47210668446
 10593.993357792742 -71.556841505525284 -999943.87951742252
 10689.937405078355 -86.595646994341521 -999942.8572370871
 10839.531213539645 -106.53846773941466 -999941.24488023063
 11058.179154608624 -131.93434868256199 -999938.84776375792
 11364.353233034219 -163.60120290535502 -999935.41026920383
 11781.514907197399 -202.70222867676338 -999930.57499923371
 12340.812165444602 -250.89113871538123 -999923.81780250336
 13084.929035176852 -310.47590371722788 -999914.34044964949
 14073.702410219201 -384.60355094010572 -999900.88657855359
 15392.126448830963 -477.54451424154212 -999881.42016672168
 17161.20472183084 -595.03280781648903 -999852.55862474698
 19551.279199588487 -744.41840641547492 -999808.57834032213
 22794.28225155202 -933.75901115270813 -999739.7405278763
 27180.457344017774 -1167.5328817233328 -999629.86130144179
 32985.889307481077 -1434.7327271219935 -999454.78769607004