# OOMMF OVF 2.0
#
# Segment count: 1
#
# Begin: Segment
# Begin: Header
#
# Title: Oxs_TimeDriver::Magnetization
# Desc: Oxs vector field output
# Desc:  MIF source file: /mnt/gpfs/work/plgrid/groups/plggspinsym/MF/switching-obrazki/p-ap/Anisotropy.mif
# Desc:  Iteration: 50600, State id: 354350
# Desc:  Stage: 0, Stage iteration: 50600
# Desc:  Stage simulation time: 7.44842e-09 s
# Desc:  Total simulation time: 7.44842e-09 s
# meshunit: m
# meshtype: rectangular
# xbase: 1.0000000000000001e-09
# ybase: 1.0000000000000001e-09
# zbase: 3.4999999999999998e-10
# xnodes: 35
# ynodes: 35
# znodes: 5
# xstepsize: 2.0000000000000001e-09
# ystepsize: 2.0000000000000001e-09
# zstepsize: 6.9999999999999996e-10
# xmin: 0
# ymin: 0
# zmin: 0
# xmax: 7.0000000000000005e-08
# ymax: 7.0000000000000005e-08
# zmax: 3.4999999999999999e-09
# valuedim: 3
# valuelabels: Magnetization_x Magnetization_y Magnetization_z
# valueunits: A/m A/m A/m
#
# End: Header
#
# Begin: Data Text
 -0 0 -0
 0 0 -0
 -0 -0 0
 -0 0 0
 0 0 0
 -0 0 -0
 0 0 0
 0 -0 0
 -0 0 0
 0 0 0
 0 0 0
 -0 -0 0
 0 0 0
 23646.814498628344 34597.196398864668 -999121.54524132144
 21138.018714446946 34134.91872723696 -999193.67066065455
 18717.147566023807 33640.680753319517 -999258.71173857909
 16799.747716971331 33319.21595462117 -999303.55664573505
 15143.445996306777 33206.393370297745 -999333.78381934715
 13427.832802716983 33307.233644986802 -999354.95270356303
 11326.02935967982 33628.344427932541 -999370.22944951674
 8581.2177642289971 34140.770778771708 -999380.19315589499
 5616.5620931777839 34630.976865047931 -999384.38534511137
 0 0 0
 -0 0 -0
 -0 0 -0
 -0 0 0
 0 -0 0
 -0 0 0
 -0 -0 0
 0 0 0
 0 -0 0
 0 -0 -0
 0 -0 0
 -0 -0 0
 0 0 -0
 -0 -0 -0
 -0 -0 -0
 -0 -0 -0
 -0 0 -0
 0 0 -0
 0 0 -0
 -0 -0 0
 0 0 0
 0 0 -0
 0 0 0
 28811.365207633673 32438.626212374947 -999058.37705527816
 26667.948926443292 31179.175785179676 -999157.98525429075
 24945.113989902602 29401.090736918446 -999256.38209195843
 23134.184269252757 28887.978149782564 -999314.91244582844
 20747.926233827046 27798.399614399212 -999398.20518944005
 18610.3116952649 27043.211950828139 -999461.01524070837
 16877.507560660688 26635.079327034528 -999502.73750889872
 15353.412938129124 26508.868289081311 -999530.66616946948
 13781.846350829492 26646.267450566233 -999549.91728383175
 11908.30676605215 27084.714540924302 -999562.2094037981
 9553.2235575163122 27907.485874413629 -999564.85940224479
 6950.271218945928 29101.21953366098 -999552.30616093148
 5156.0958946339515 29644.479443765082 -999547.20724617795
 3059.8145643084608 31286.072446508148 -999505.78747984441
 339.3252276242572 32455.88613543391 -999473.11135095241
 -0 0 -0
 0 -0 0
 -0 0 -0
 0 -0 -0
 -0 0 0
 -0 0 0
 -0 0 -0
 -0 0 0
 -0 0 -0
 -0 0 0
 0 -0 -0
 -0 0 -0
 -0 0 0
 -0 0 0
 -0 -0 0
 0 0 -0
 0 -0 -0
 -0 -0 0
 33802.42725884328 29903.2990105307 -998981.07520598057
 31198.514240872995 28349.028391919939 -999111.09757543798
 28335.457650859036 27222.266349865455 -999227.72682431794
 25638.11962539834 25244.346269177735 -999352.49527057051
 23552.449206147321 23297.598300808615 -999451.10138005554
 21714.401076263039 21807.950804569013 -999526.33685541491
 19858.93103913292 20591.280857631438 -999590.72725322179
 18197.118733666492 19802.913200326613 -999638.28933198308
 16779.311379155351 19385.361009191387 -999671.27721475775
 15492.295547763904 19264.371530373242 -999694.38968526816
 14172.672283361813 19417.742864307493 -999711.00155115034
 12662.099845328454 19882.345119335067 -999722.14318782731
 10866.913999301067 20739.767696268264 -999725.84852850356
 8875.4340796745146 22028.299210946312 -999717.95057594625
 6911.3348508566332 23532.696505810916 -999699.17757580697
 4534.7564198328773 25438.262440521194 -999666.10965272784
 1440.9355928967962 27413.666735750037 -999623.13627722638
 -1720.5078522430269 28502.802861434015 -999592.23190347617
 -4937.8760720936116 29905.291382977921 -999540.53991181159
 -0 0 -0
 -0 -0 -0
 0 0 -0
 -0 0 0
 -0 0 -0
 0 0 -0
 0 -0 -0
 -0 -0 -0
 -0 -0 0
 0 0 0
 0 0 0
 0 0 -0
 -0 0 0
 0 0 0
 -0 -0 -0
 36285.140567605304 26322.761528761923 -998994.74513106875
 33112.602385958264 25287.239402681065 -999131.67855224235
 29532.892553277572 22958.747753961576 -999300.10715450568
 26468.016903214288 20757.29751156077 -999434.12923575297
 23962.353485898904 18709.555547354252 -999537.77224607056
 22012.880949426806 16982.146113487073 -999613.44518052891
 20408.655238827461 15634.324324110094 -999669.47272299521
 18980.518176281683 14625.860033910449 -999712.87085244036
 17720.526277104313 13964.88450720822 -999745.45007674978
 16609.99697326673 13607.709022448073 -999769.44254948513
 15576.103579930907 13507.418389522356 -999787.44473298825
 14520.307421908879 13648.637343166478 -999801.41796811228
 13347.744438160125 14053.99752937698 -999812.14379095135
 11995.978797794583 14770.988853184714 -999818.94079927402
 10456.477562382166 15830.105071349237 -999820.01872857974
 8708.9169369556384 17202.654141962965 -999814.09444769158
 6533.5496719343528 18936.19091713005 -999799.34657021775
 3729.4155337425682 20996.575873568076 -999772.59177343012
 311.62082540181336 23192.830564058331 -999730.961560603
 -3762.3830114492712 25508.985657334371 -999667.51278853172
 -7379.7185688617819 26544.585445626395 -999620.39031692641
 -0 -0 -0
 0 -0 0
 -0 0 -0
 -0 -0 -0
 0 -0 -0
 0 -0 -0
 0 0 -0
 0 -0 -0
 -0 0 -0
 0 0 -0
 -0 0 0
 -0 0 0
 -0 0 -0
 37623.010450402682 24164.055246183911 -998999.80356289761
 34669.581488624892 22471.658172670017 -999146.1578259581
 30771.830767773852 19852.050373428603 -999329.27032443637
 27267.304320680159 17286.112785998896 -999478.70633637463
 24490.701973866668 15141.833281439545 -999585.37924566714
 22346.675667098087 13389.786300757438 -999660.61226270662
 20695.913805759403 12001.858941434548 -999713.77630484558
 19377.305607346112 10943.382670860685 -999752.35053643084
 18265.99140905113 10173.183941776113 -999781.40605150838
 17301.493955020142 9665.2391907639412 -999803.60144295811
 16439.267374894946 9387.026174760982 -999820.80105775525
 15624.335840091184 9310.7446643004769 -999834.58140001958
 14793.464664436244 9426.8863872454676 -999846.13177041593
 13885.1196287116 9747.5889985096765 -999856.08362484467
 12848.078351602628 10299.724632017664 -999864.41208554641
 11638.729006875254 11109.836617750057 -999870.54737972515
 10187.542689728296 12198.088688790289 -999873.70232759148
 8351.9573531839469 13609.99742349416 -999872.4982609048
 5966.0730599986227 15389.207303292711 -999863.77985744586
 2884.854102209375 17563.515906230805 -999841.58771568432
 -1003.9431172318657 20168.298452937317 -999796.09512926708
 -5324.6893184204364 22824.706602276809 -999725.30249673198
 -8688.4747612013998 24474.481153903675 -999662.69820303458
 0 -0 -0
 -0 0 -0
 0 0 0
 0 0 -0
 0 -0 0
 -0 0 0
 -0 0 0
 0 -0 0
 -0 -0 -0
 -0 -0 -0
 0 0 0
 38611.192834713962 22893.839328289865 -998992.01593841135
 35724.038440633019 20824.857854265309 -999144.69341174094
 31811.711251225053 17816.536861756835 -999335.0719561096
 28111.535901315605 14986.251454636786 -999492.44810384011
 25085.716972332819 12656.765418351926 -999605.17860459734
 22758.684501224106 10836.358374574635 -999682.25732827303
 20995.895471689357 9430.0905220312907 -999735.08779380575
 19649.727335667165 8356.8666941953434 -999771.99950523197
 18589.638728746428 7556.3172256291873 -999798.64342872577
 17716.833691460612 6983.1000951283586 -999818.65861615643
 16966.90442866804 6605.3990931970975 -999834.2326890633
 16292.49223790159 6397.5583544208239 -999846.80123695941
 15649.554684958219 6341.6007497764731 -999857.42760560277
 14993.66772090403 6431.3603354797096 -999866.90490910364
 14280.990544749611 6673.6879545603142 -999875.74988002691
 13468.406550151538 7085.8410696424498 -999884.18973465916
 12507.59592940581 7691.3459778307715 -999892.19580968609
 11329.242617812002 8520.9377999213684 -999899.5158918302
 9827.0636648219606 9622.8457368455965 -999905.41035622603
 7865.4223753424831 11062.515276750388 -999907.87369967706
 5291.7020076740737 12924.489046733219 -999902.47298061172
 1966.6462396468082 15304.766492807619 -999880.9411250765
 -2079.2172067597571 18180.82292683368 -999832.55324754759
 -6383.807097856642 21189.867639443273 -999755.08826730179
 -9677.1569802643025 23157.082072695226 -999685.00147929508
 0 -0 0
 0 0 0
 0 -0 -0
 0 -0 0
 0 -0 -0
 -0 -0 0
 0 -0 -0
 0 -0 0
 0 0 -0
 39800.931807716413 21892.867346143536 -998967.76133497001
 36760.992790078781 19739.267074612595 -999129.1161528849
 32732.2611265835 16565.560201214921 -999326.86409240542
 28909.013504111073 13540.994844606912 -999490.32531427604
 25722.359696079631 11053.521276919055 -999608.01311266317
 23231.231985924085 9125.214877867149 -999688.47163196234
 21343.310148117751 7666.5262049642424 -999742.81067075953
 19922.351803495163 6571.2096957496824 -999779.93533664825
 18840.529493594287 5754.5178100922076 -999805.94115716999
 17993.090463640165 5155.5859900870073 -999824.81897013658
 17301.120768191809 4731.6853539106687 -999839.12824707758
 16708.464457262256 4453.3489635751403 -999850.48627206718
 16173.16611091503 4299.978988317499 -999859.95963367226
 15659.712392847036 4258.7924079364857 -999868.30937628972
 15134.827819839915 4325.4817434726365 -999876.10592240398
 14565.401720584478 4504.4608456164879 -999883.77269821125
 13916.045511260661 4808.2046056582603 -999891.606548329
 13144.023821530758 5256.8093749161026 -999899.79527599411
 12190.914443648922 5880.0710162028345 -999908.39898956358
 10974.625656347425 6722.7574286788322 -999917.17763235664
 9387.6056043314402 7848.79543990824 -999925.13183295878
 7299.3376340830373 9345.1932105650521 -999929.69104530581
 4570.8159760035414 11317.099876467169 -999925.51267166866
 1106.8032451749521 13843.689393038205 -999903.55897484696
 -3042.9260472920209 16878.423786051102 -999852.91888935794
 -7459.3664107164859 20000.143102951479 -999772.15010651934
 -10918.221710680102 21994.955224287947 -999698.46172701393
 0 -0 0
 0 -0 0
 0 0 -0
 0 0 -0
 0 0 -0
 0 -0 0
 -0 0 -0
 41789.706763363763 20605.425308161259 -998913.92865276535
 38284.30753500908 18697.234193386274 -999091.95033794711
 33895.967319300216 15619.473059123271 -999303.30503848731
 29811.131095696739 12577.597864154188 -999476.41317580012
 26425.208059658922 10018.614277322013 -999600.58810855355
 23768.605105916795 8013.1511417462043 -999685.37191463297
 21745.981481304971 6494.2413444542017 -999742.43538962328
 20227.950442423156 5362.0290731691939 -999781.01535542146
 19088.51675233378 4523.6987987891462 -999807.56382284558
 18220.953996891647 3906.9304949207703 -999826.35128783784
 17541.24249055043 3459.6068667032632 -999840.15519092628
 16986.31312703808 3145.4003255249909 -999850.77467747289
 16509.945634479052 2939.5478935593319 -999859.38048974064
 16077.282401154236 2825.6494155600139 -999866.75947146758
 15659.813396543337 2794.13701214399 -999873.47351689613
 15231.772108977359 2841.8598894998486 -999879.95126954536
 14767.468474316789 2972.0032218222582 -999886.5380990532
 14238.478066908428 3194.1067076801132 -999893.52604398737
 13609.728985171076 3524.6517932373058 -999901.17116977437
 12834.31091162188 3988.9856352810148 -999909.680149675
 11848.163250792759 4624.7419512097658 -999919.11312339001
 10566.248759182565 5485.6297407754819 -999929.12861537631
 8880.5374070181515 6644.7094474771829 -999938.49005412369
 6662.6685069824453 8192.8387764616728 -999944.24156607303
 3778.1927672524689 10222.435177093566 -999940.61177575123
 120.90106309861059 12785.248612266732 -999918.2580595552
 -4295.8100103454954 15787.327330856846 -999866.14419736399
 -9092.3156167484576 18753.223229314062 -999782.79961961601
 -13051.734725535111 20440.08576954473 -999705.88430517295
 0 0 0
 0 0 0
 -0 0 0
 0 -0 0
 -0 0 -0
 45057.937808053364 18246.16819710637 -998817.73091320752
 40872.943906242152 17204.983033595305 -999016.21158780542
 35766.654730162649 14602.423203222605 -999253.47917633341
 31134.294126301524 11768.002448341107 -999445.93142782513
 27367.947214635333 9272.7003757892708 -999582.41905957775
 24449.377611219315 7262.5029054586566 -999674.68907938851
 22242.082985353001 5714.7135055678382 -999736.28112318798
 20593.657770219725 4551.8686920872142 -999777.56613711489
 19366.974327228141 3689.5425079716551 -999805.63490184932
 18448.303393434016 3054.5733054400107 -999825.14955557382
 17747.91732888222 2590.2399332510008 -999839.13810551295
 17197.44738612714 2255.2294139518312 -999849.56955718668
 16746.035327475729 2020.5436773134536 -999857.73373218405
 16356.145130103067 1866.4374693780348 -999864.48728197976
 15999.402713031497 1780.0935495104084 -999870.41679398704
 15652.942895131275 1754.2453299380165 -999875.94630636252
 15296.474405121715 1786.5593315537285 -999881.40600599651
 14909.803580509335 1879.4660394790812 -999887.07630641828
 14470.305060475655 2040.353623852202 -999893.21791306615
 13949.871711833306 2282.2784520747391 -999900.09115125623
 13311.180064534883 2625.4679858486707 -999907.95546547428
 12503.510871890307 3099.6344190027921 -999917.02379864757
 11458.461283645323 3746.7001917509133 -999927.33031090046
 10085.641942599437 4623.1616043750219 -999938.45120756573
 8269.0449505740853 5800.0095769904647 -999948.99009125086
 5865.9421230155112 7356.1505955687398 -999955.73790614575
 2712.7036379927517 9358.8927639671147 -999952.52505566739
 -1345.3929908349405 11815.082867455654 -999929.29436762433
 -6349.6819680920662 14555.903461370195 -999873.89565551071
 -11923.96724297631 16983.115871899467 -999784.67320742132
 -16627.922127857724 17739.597198460149 -999704.36574866797
 0 0 0
 -0 -0 -0
 0 -0 -0
 0 0 -0
 43647.381900009626 15307.36399738135 -998929.72258348926
 38631.812984526325 13401.800336586912 -999163.63763563137
 33246.984594969254 10943.805115893096 -999387.24783985876
 28825.02080934295 8631.568620234526 -999547.2045874045
 25445.582874130137 6696.2962472260024 -999653.7810305953
 22929.737475498328 5167.4111930509962 -999723.72433631227
 21076.287393145347 3998.4310964371502 -999769.87485045218
 19714.329659925454 3121.7584426741214 -999800.78007085237
 18709.434778367216 2471.7262549381571 -999821.90795140853
 17958.994156456494 1993.1711556562793 -999836.7375715063
 17386.069903615182 1643.3528027271259 -999847.50035436521
 16933.741532972719 1390.8413057786611 -999855.64656012051
 16560.259197391119 1213.3692063221038 -999862.13327162492
 16234.934676622375 1095.7208847030331 -999867.60438159422
 15934.653333427754 1028.0786328836612 -999872.50681147759
 15640.969331770011 1004.9557859845648 -999877.16752720706
 15337.69879755098 1024.6350190265855 -999881.84557910298
 15008.794706982972 1089.008424100618 -999886.76866037957
 14636.198000167627 1203.7615502728393 -999892.16051843809
 14197.372481567292 1378.969504495094 -999898.26135348668
 13662.322495175342 1630.1787129992276 -999905.33725018275
 12989.985446717532 1979.982686136608 -999913.66624656983
 12123.860392492597 2459.8845064342427 -999923.47756085754
 10986.596502998107 3112.0010449959332 -999934.80294806033
 9473.3150492417353 3989.5688717970588 -999947.16842550982
 7443.8627752346702 5154.3591463812754 -999959.00990429276
 4716.0820630422177 6667.5623312293792 -999966.65053517348
 1070.0926655634007 8566.492899613535 -999962.73435617995
 -3699.1001414603584 10810.409740592364 -999934.72371919558
 -9537.2673514063463 13159.80018269959 -999867.92137292784
 -15099.0752661195 14938.446242831389 -999774.40492841078
 -0 0 -0
 -0 -0 -0
 0 0 -0
 47388.994513025616 13221.660877713572 -998789.00218348368
 42608.109047672762 12329.332617568209 -999015.78395968664
 36480.327966337783 10203.614651436912 -999282.2783976075
 31115.581469499521 8064.8940097451105 -999483.25552478677
 26996.676588757546 6229.6425084186167 -999616.11181862163
 23969.446099653345 4750.4668339302352 -999701.404779715
 21777.259563711272 3599.662338098226 -999756.36701995879
 20194.619919750861 2724.0853001645655 -999792.35678493464
 19047.908946000236 2067.3816733163253 -999816.43470079126
 18208.993731649069 1579.2659199760556 -999832.95528124855
 17584.682057261714 1218.6637422723627 -999844.63483864756
 17107.581252882013 953.9085739769813 -999853.19958587363
 16729.087228938504 761.59999178512624 -999859.7689705987
 16414.128726920819 625.04980169403768 -999865.0837442429
 16137.180407988672 532.80686212953105 -999869.64526648563
 15879.170253069649 477.49849243060902 -999873.8040109179
 15625.023846909839 455.03913687136378 -999877.81832040218
 15361.640236061496 464.19545862353914 -999881.89529155591
 15076.083670598209 506.4457793573718 -999886.22113409976
 14753.759774234684 586.12617277359607 -999890.98557224404
 14376.342595039063 710.86514581289225 -999896.40235593135
 13919.228279857927 892.35042468694814 -999902.72466616111
 13348.272258736106 1147.4066552524571 -999910.2495152622
 12615.478052659979 1499.3082376001678 -999919.29763771989
 11653.153359756752 1979.090767814648 -999930.14116812509
 10365.934651510643 2626.4138959329866 -999942.82303982135
 8620.2334142212731 3489.1353545221305 -999956.75782023801
 6231.9315314240166 4620.1116805700321 -999969.90834596963
 2958.5070421203795 6068.154727783206 -999977.21210749669
 -1479.2037469445336 7856.3648795842437 -999968.04423299129
 -7253.0167914205513 9927.0211740812247 -999924.42114293459
 -13860.5207488499 11947.11151430517 -999832.56222781399
 -19095.335019220111 12602.86340344465 -999738.23374648322
 -0 -0 0
 0 0 -0
 46206.104988891413 10801.462914822767 -998873.52766036161
 40675.847595374144 9486.126710285329 -999127.36366412975
 34448.177784282459 7605.3937551470526 -999377.54679258808
 29353.334444339405 5858.0449802963949 -999551.9321506049
 25564.940053544848 4422.9786118372213 -999663.37889324431
 22842.120780055058 3296.4843436959231 -999733.64988342812
 20906.036366417276 2431.8221599906583 -999778.48740830016
 19529.187885118634 1777.1520273764215 -999807.70778746204
 18543.157338445246 1285.836733048144 -999827.23404587142
 17827.447503919248 919.1503584766599 -999840.65594379266
 17296.819770548042 646.46568787582089 -999850.18983242661
 16891.119660947683 444.44702300058259 -999857.23608095315
 16567.83171057425 295.88094455651674 -999862.70027783164
 16296.756990827031 188.46311467919404 -999867.18127621128
 16056.181965523712 113.74009990967096 -999871.08473236684
 15830.052664676534 66.279350054056209 -999874.69466912758
 15605.812709185839 43.10323123454944 -999878.22096083127
 15372.648617954559 43.357886686167411 -999881.83291555138
 15119.926685796945 68.208805265732877 -999885.68504833325
 14835.614478537602 120.93560751901167 -999889.93890208879
 14504.476858233789 207.24686146324999 -999894.78306460194
 14105.812803816523 335.81260298406238 -999900.45168258576
 13610.442472826695 519.03329915060897 -999907.23892775574
 12976.543402862595 774.0051421170117 -999915.50154868257
 12143.7736501609 1123.6246574647912 -999925.63034915889
 11024.969442646576 1597.6720118347384 -999937.94682116725
 9494.7667071600554 2233.6155494495706 -999952.42905187933
 7375.4727113370236 3076.5488594492303 -999968.0681148771
 4424.6393613571463 4176.6393992944732 -999981.48895359552
 343.14336316627003 5578.3447965035193 -999984.38203902135
 -5130.3599061660934 7279.0187395293724 -999960.34686052555
 -11829.04216447979 9080.4972817222806 -999888.80298290541
 -17888.087754002103 10270.987108819781 -999787.23893652263
 0 0 0
 -0 -0 0
 44524.885080864784 8913.8705251840529 -998968.50677125738
 38766.699426590516 7307.1258686071878 -999221.57148808031
 32718.711286417525 5605.5981105614892 -999448.87973401579
 27940.302542867852 4179.4876458090976 -999600.85603046149
 24454.636452937313 3061.3346664538976 -999696.25336199708
 21983.829399362083 2205.3960790600463 -999755.89394265355
 20247.934602267243 1556.8628261488518 -999793.77739736042
 19026.696094185496 1068.060304615693 -999818.40555319097
 18160.047087378105 700.64787336537961 -999834.8472534559
 17535.211643066603 424.71903693357302 -999846.15614922089
 17073.635242859851 217.42248033585113 -999854.21122634609
 16720.733847815634 61.65101521695015 -999860.19685691211
 16438.492187034579 -55.121641051570876 -999864.87733904389
 16200.263972320301 -141.82046579986391 -999868.75705473602
 15987.115207089484 -204.56479289174831 -999872.17698093818
 15785.20155404805 -247.26177962188606 -999875.3753711062
 15583.80986444454 -272.0209658925765 -999878.52805963531
 15373.795009145666 -279.38967244114377 -999881.77719589812
 15146.195353337363 -268.44035324640845 -999885.25376969902
 14890.833374798996 -236.70070896575243 -999889.09737739339
 14594.701381721523 -179.94012441910482 -999893.47548282868
 14239.900667213598 -91.784989107963909 -999898.60326160246
 13800.833717377767 36.834500159642154 -999904.76328094606
 13240.235919448454 218.43550610025102 -999912.32037550549
 12503.479794491368 469.92941627403462 -999921.71801565168
 11510.436492746236 813.79587634005236 -999933.42157766584
 10144.213135263433 1279.4833984197469 -999947.72756484605
 8236.8461856683771 1904.9733646808215 -999964.26208209759
 5555.1899661631751 2737.8810022809894 -999980.82175212586
 1800.9111470567716 3833.1849698180899 -999991.03166579828
 -3325.8930137034527 5236.3079395810691 -999980.75957231456
 -9818.3069945692423 6913.8271496929638 -999927.89732155402
 -16092.394212411171 8499.9868934371516 -999834.37882047414
 -0 0 -0
 49317.10967245786 8189.1627161586584 -998749.59840170306
 44047.282340858539 7175.4969282907296 -999003.67825259606
 37287.491727105655 5471.2914632522443 -999289.60163229203
 31351.249013624565 4000.4723672587702 -999500.42291443015
 26844.537216615539 2866.6288368022228 -999635.51020396315
 23608.27858234011 2012.3534776164327 -999719.26040056837
 21336.483435867012 1371.5831745530393 -999771.41049051133
 19753.397510944746 890.63565795738964 -999804.48591457098
 18648.088104512408 528.74489872709114 -999825.96947612741
 17869.048132199183 255.46041441196394 -999840.30317787547
 17310.424752084593 48.125125921567843 -999850.16221375612
 16899.118033124301 -110.04766140426952 -999857.19365278096
 16584.812310319776 -231.39082233290924 -999862.43576750031
 16332.814490720226 -324.83038379064232 -999866.55792462302
 16119.050791001811 -396.68155291336103 -999870.00097279763
 15926.585318751851 -451.23988718815912 -999873.06207470584
 15743.157151351588 -491.21806236068898 -999875.94815943204
 15559.370332839562 -518.03561827620229 -999878.81147364236
 15367.266008908093 -531.99556074912914 -999881.77506950032
 15159.066614459511 -532.34251722876445 -999884.95303750946
 14925.904700282605 -517.22456925774645 -999888.46870419651
 14656.345811079076 -483.53825724340084 -999892.47307809058
 14334.479537462073 -426.66325710846405 -999897.16503991303
 13937.28451955874 -340.05030250139259 -999902.81351039931
 13430.865118388392 -214.64921613114473 -999909.77882401261
 12765.014314998267 -38.112311652370757 -999918.52315925702
 11865.421817491451 206.28972262508464 -999929.58212548296
 10622.857074445088 541.17521777517663 -999943.42941836442
 8879.248006884116 997.11117934537708 -999960.08156532329
 6412.9623044041891 1615.2540939571425 -999978.13219524652
 2933.3173034831216 2449.85341456889 -999992.69690725452
 -1881.7574541635236 3566.8024588121543 -999991.8684214903
 -8196.182034807438 5017.9223572007186 -999953.82046135992
 -15369.308257576155 6665.7711065567746 -999859.66608281515
 -20997.737006825872 7445.5097207341796 -999751.79891090502
 48867.93613826279 5494.9813480118937 -998790.13310983975
 42940.660621759554 4764.8517162767821 -999066.26199341193
 36042.024462978741 3630.2080343791654 -999343.68165423314
 30302.25249342238 2598.1928221455969 -999537.4044466191
 26025.54488494854 1786.8327205825397 -999659.68121269648
 22982.214243570277 1174.000272834309 -999735.1847123428
 20859.1907634528 714.77346341559371 -999782.16790438408
 19387.862846382162 369.63554429276513 -999811.96939415287
 18365.976342308284 108.39188017460621 -999831.32535652968
 17649.304688284865 -91.168023623666045 -999844.23473479692
 17137.58630862457 -245.22432182096142 -999853.11071204196
 16761.928137063122 -365.53228982400628 -999859.4421973885
 16475.180861742036 -460.58743925751975 -999864.1689123495
 16245.043786369037 -536.46261566322676 -999867.8966544735
 16049.260457313027 -597.40211094561505 -999871.02385732287
 15872.288835976706 -646.25567581342216 -999873.81843946117
 15702.963814740029 -684.77835754131593 -999876.46637273871
 15532.793549011272 -713.83869315379593 -999879.10407152923
 15354.627821748114 -733.53417323674523 -999881.84168534272
 15161.491818008528 -743.24111914612331 -999884.78174162214
 14945.405950646575 -741.58424466906808 -999888.03617894067
 14696.006846529577 -726.34112955526962 -999891.74404598924
 14398.751982687232 -694.25351185442628 -999896.09157822118
 14032.423793756507 -640.74489142390598 -999901.33539687621
 13565.546454823174 -559.4960962996862 -999907.82720883819
 12951.195138825671 -441.84727579276012 -999916.03213242919
 12119.54422042073 -275.93681403896096 -999926.51755354705
 10967.489983107047 -45.500446045330577 -999939.85423783353
 9345.1383059879445 271.7415027012874 -999956.29631829297
 7040.8599192220072 705.88532421480431 -999974.9636953451
 3772.7419058575374 1295.5242393535539 -999992.04398607952
 -787.5064026601915 2081.7543416072667 -999997.52306319599
 -6879.8721117557188 3074.4852623195279 -999971.607046969
 -14194.37465337715 4127.4712563816784 -999890.7358852902
 -20573.821120830664 4723.4096289052623 -999777.17881834321
 48351.038480691903 2989.5207843378089 -998825.93070230156
 42143.886347325548 2610.0145529615347 -999108.14262900339
 35204.221728737488 1993.5042588703038 -999378.15100853762
 29587.570611498813 1382.2061332307846 -999561.23632897798
 25461.087513151888 874.27481174704894 -999675.43166079698
 22547.002843809965 478.9911196134579 -999745.66927307483
 20524.275021004582 177.30813582299004 -999789.33915934863
 19128.06536968617 -53.111174780176881 -999817.04041010223
 18161.923266028385 -230.87709449713927 -999835.03201230487
 17486.741629725508 -370.03134603391743 -999847.02677158464
 17006.221586032712 -480.81314598740494 -999855.2681493886
 16654.41964464901 -570.59041635746951 -999861.14272576699
 16386.364266018234 -644.62125140098271 -999865.52672326064
 16171.368513554871 -706.60506731169937 -999868.98519239877
 15988.379592263049 -759.08153005568556 -999871.88955047855
 15822.765069724112 -803.70552175060539 -999874.48920501128
 15664.064003052088 -841.44575806444641 -999876.95696417801
 15504.357441189502 -872.70974128459318 -999879.41936917754
 15337.000411423845 -897.42510019645692 -999881.97855875443
 15155.516194671751 -915.06572189115718 -999884.72984819487
 14952.476691368889 -924.64348202275301 -999887.77794071764
 14718.190520598964 -924.64452199779748 -999891.25403731165
 14438.987177192874 -912.92153207722902 -999895.33563447185
 14094.821899718685 -886.50976898221097 -999900.27007499326
 13655.827218059885 -841.36285978785156 -999906.40086536529
 13077.305010231508 -771.95776852229505 -999914.19040579314
 12292.515261462655 -670.74521295951592 -999924.21921333892
 11202.561489309408 -527.40381380451481 -999937.11025308748
 9662.9815554306879 -327.99484506513886 -999953.25851103698
 7468.1059646722315 -54.481264318484335 -999972.11182367068
 4339.0852830595632 313.68673526843548 -999990.5369249942
 -63.731190579063224 791.04306432093881 -999999.68509455316
 -6037.5879701944286 1359.4210142260977 -999980.84956963488
 -13421.691196763599 1911.7408095416063 -999908.09750321368
 -20117.461990212563 2224.2757732878845 -999795.1491782486
 47998.607146890557 1064.4145228009202 -998846.83547262743
 41692.257167057629 898.28011314936725 -999130.09602611524
 34733.976125263311 623.3833839910576 -999396.39898074768
 29173.01008692689 335.06623693781336 -999574.32100523938
 25123.534269640575 82.957653022142253 -999684.35075469187
 22279.751599591069 -121.66973316285666 -999751.7681230359
 20312.961077086544 -284.07330944382608 -999793.63016306306
 18958.992145082379 -413.43534967107792 -999820.17667581339
 18024.260959501651 -518.16601945906291 -999837.41554356739
 17372.527470240137 -604.81263436474296 -999848.90333038464
 16909.800390132699 -678.16678092703114 -999856.78911561274
 16571.866433833522 -741.64185327637813 -999862.40213854448
 16315.023267602666 -797.6199426091498 -999866.58300905547
 16109.510126690082 -847.72375361971569 -999869.87405757734
 15934.95233969549 -893.00568243887574 -999872.63180606288
 15777.217124743791 -934.08831240329505 -999875.09564886324
 15626.219398288715 -971.25469125731308 -999877.43145429657
 15474.335055941947 -1004.5164514769529 -999879.76072189549
 15315.171052366615 -1033.6480251422972 -999882.18161311245
 15142.494251944376 -1058.2092860861053 -999884.78589332325
 14949.147689743822 -1077.5387493341636 -999887.67463830358
 14725.778024614987 -1090.735388752576 -999890.97493570833
 14459.167130324409 -1096.6061417565666 -999894.85944316525
 14129.897752726374 -1093.5912340072953 -999899.56998076069
 13708.985294407119 -1079.6377832232299 -999905.44458186394
 13152.97634850051 -1052.0250045272196 -999912.94243877335
 12396.863631585535 -1007.1087563827692 -999922.64876041934
 11344.072302599892 -940.00676917871726 -999935.21210669819
 9852.9511553598368 -844.29636379395811 -999951.10206308577
 7720.3317834576401 -712.08551157305203 -999969.94425401487
 4666.832905036169 -535.45310430688608 -999988.96691944031
 342.35668202788645 -311.58117249851068 -999999.89285453176
 -5582.4627460444899 -54.969551519212395 -999984.4164225948
 -12999.838160929803 184.84724517253338 -999915.48144795001
 -19804.134785994414 325.89608650252643 -999803.82577639655
 47855.494583954569 -539.88130400448381 -998854.12356675137
 41525.437098182818 -561.53372111414251 -999137.2892419165
 34562.202074021596 -586.57461750002165 -999402.3764820717
 29015.944959146549 -613.2409457424817 -999578.76071556786
 24988.072260570199 -641.9544147414274 -999687.54325500608