# OOMMF OVF 2.0
#
# Segment count: 1
#
# Begin: Segment
# Begin: Header
#
# Title: Oxs_TimeDriver::Magnetization
# Desc: Oxs vector field output
# Desc:  MIF source file: /mnt/gpfs/work/plgrid/groups/plggspinsym/MF/switching-obrazki/p-ap/Anisotropy.mif
# Desc:  Iteration: 53300, State id: 373250
# Desc:  Stage: 0, Stage iteration: 53300
# Desc:  Stage simulation time: 7.8455e-09 s
# Desc:  Total simulation time: 7.8455e-09 s
# meshunit: m
# meshtype: rectangular
# xbase: 1.0000000000000001e-09
# ybase: 1.0000000000000001e-09
# zbase: 3.4999999999999998e-10
# xnodes: 35
# ynodes: 35
# znodes: 5
# xstepsize: 2.0000000000000001e-09
# ystepsize: 2.0000000000000001e-09
# zstepsize: 6.9999999999999996e-10
# xmin: 0
# ymin: 0
# zmin: 0
# xmax: 7.0000000000000005e-08
# ymax: 7.0000000000000005e-08
# zmax: 3.4999999999999999e-09
# valuedim: 3
# valuelabels: Magnetization_x Magnetization_y Magnetization_z
# valueunits: A/m A/m A/m
#
# End: Header
#
# Begin: Data Text
 -0 0 -0
 0 0 -0
 -0 -0 0
 -0 0 0
 0 0 0
 -0 0 -0
 0 0 0
 0 -0 0
 -0 0 0
 0 0 0
 0 0 0
 -0 -0 0
 0 0 0
 21488.756231920321 34665.339601002248 -999167.92762075376
 19095.518163996105 34340.509056257833 -999227.74712465121
 16901.079991571758 33949.592674143903 -999280.63058000791
 15245.015236327055 33674.94720416316 -999316.56017562374
 13850.567083225407 33559.607351240353 -999340.73996105231
 12378.38155129607 33615.418881591409 -999358.18367769697
 10488.409895359942 33849.709801710458 -999371.89794600836
 7918.8963447798087 34230.144010016942 -999382.60357169225
 5102.8494028949935 34562.849390869997 -999389.49882913788
 0 0 0
 -0 0 -0
 -0 0 -0
 -0 0 0
 0 -0 0
 -0 0 0
 -0 -0 0
 0 0 0
 0 -0 0
 0 -0 -0
 0 -0 0
 -0 -0 0
 0 0 -0
 -0 -0 -0
 -0 -0 -0
 -0 -0 -0
 -0 0 -0
 0 0 -0
 0 0 -0
 -0 -0 0
 0 0 0
 0 0 -0
 0 0 0
 26183.679312355634 32920.388880329599 -999114.93980103976
 24227.268827127456 31760.920345840153 -999201.82314883894
 22757.479542531284 29995.504968542278 -999290.93201457278
 21060.313836881916 29381.274749416767 -999346.38833349058
 18782.241829030412 28356.735823380386 -999421.39407024859
 16832.245199431567 27680.659496758908 -999475.09054071514
 15332.425394399184 27317.244459345915 -999509.22201181995
 14052.016742783733 27197.448609191953 -999531.30997213419
 12710.821278161249 27309.185083645472 -999546.2187575429
 11037.312426208209 27698.95294174369 -999555.37402403925
 8847.7681606714596 28467.297183870953 -999555.56623412401
 6416.4931482997918 29643.86732241714 -999539.92904028017
 4904.2459583436157 30311.600662847526 -999528.46644647198
 3101.6402459482747 31822.927678163032 -999488.70984207466
 581.02669652336851 32779.178047485635 -999462.44946696656
 -0 0 -0
 0 -0 0
 -0 0 -0
 0 -0 -0
 -0 0 0
 -0 0 0
 -0 0 -0
 -0 0 0
 -0 0 -0
 -0 0 0
 0 -0 -0
 -0 0 -0
 -0 0 0
 -0 0 0
 -0 -0 0
 0 0 -0
 0 -0 -0
 -0 -0 0
 30901.59550600249 30648.899532178668 -999052.41922165907
 28468.208428166017 29168.964936405606 -999169.02103369334
 25757.768173189794 28022.427743889515 -999275.37792245962
 23230.760084716876 26094.036056255773 -999389.5301974006
 21353.059774442238 24141.66701349584 -999480.47842470568
 19670.758213182031 22599.322193221153 -999551.06518262776
 17952.423516796574 21386.973611008954 -999610.07790519786
 16465.405763974766 20632.407267781851 -999651.53637823428
 15258.459294466453 20243.389997527487 -999678.64065476938
 14197.040987807019 20133.731121506426 -999696.49239072448
 13097.125013248502 20283.596031147976 -999708.47803168744
 11785.951904290332 20740.851569500453 -999715.41371226334
 10169.484460440566 21606.099792549507 -999714.8383602011
 8365.0432376532808 22937.235223617976 -999701.91021720495
 6636.9644140279806 24502.596169237902 -999677.73481474258
 4494.8742203531101 26368.07934175614 -999642.19623701891
 1595.5814842786162 28258.361023844031 -999599.37932752492
 -1333.2618545116695 29334.394408743585 -999568.76487688394
 -4315.2744591170185 30520.654526924282 -999524.82112931577
 -0 0 -0
 -0 -0 -0
 0 0 -0
 -0 0 0
 -0 0 -0
 0 0 -0
 0 -0 -0
 -0 -0 -0
 -0 -0 0
 0 0 0
 0 0 0
 0 0 -0
 -0 0 0
 0 0 0
 -0 -0 -0
 33459.632425078555 27204.876108281205 -999069.74116620689
 30305.075353572814 26225.942499774006 -999196.57843079756
 26846.931301557772 23966.089866233273 -999352.22460162314
 23928.931689928919 21774.358821256512 -999476.5047394071
 21578.546349654134 19731.098692486987 -999572.43363441306
 19802.774724400468 17985.015007658749 -999642.13063895458
 18363.67290636964 16601.703762581212 -999693.53251362336
 17097.333516735551 15578.937993053723 -999732.45314815396
 16018.311793788171 14925.665886196435 -999760.29036221013
 15112.095039345535 14583.453723596818 -999779.44940922514
 14295.650935617366 14496.294361312719 -999792.72442547674
 13456.93050925816 14648.92881585656 -999802.14037869347
 12491.174288906755 15071.258871315151 -999808.3955043176
 11335.376822000058 15821.435301508365 -999810.57776826085
 9992.6880996913733 16934.233776104153 -999806.67026728659
 8451.6354444932476 18363.087051089551 -999795.6625692409
 6470.7210979566471 20119.256427684501 -999776.64770151034
 3837.1117189469796 22180.908401149507 -999746.60983479023
 592.59096818201294 24359.475654976726 -999703.08831260435
 -3315.7164163301791 26569.677838921802 -999641.46484836366
 -6784.6131734693445 27540.156596861485 -999597.67346603319
 -0 -0 -0
 0 -0 0
 -0 0 -0
 -0 -0 -0
 0 -0 -0
 0 -0 -0
 0 0 -0
 0 -0 -0
 -0 0 -0
 0 0 -0
 -0 0 0
 -0 0 0
 -0 0 -0
 34910.876290203254 25197.181894216053 -999072.73646178551
 31933.11711677886 23527.480718557861 -999213.05720163789
 28057.141940773476 20959.020575117858 -999386.56997312442
 24634.249403078789 18433.077808174901 -999526.57563411712
 21976.003367785237 16297.136442649351 -999625.65924437391
 19971.581044901213 14537.321016928861 -999694.85456724127
 18478.57906053769 13129.673870660785 -999743.04387675191
 17326.745590299877 12046.673587266319 -999777.30597505101
 16390.536733655459 11262.027995745095 -999802.23896078847
 15615.960109243959 10753.823795429378 -999820.23237362178
 14959.977172979066 10485.010076012139 -999833.11789852695
 14362.134901594465 10423.300766028362 -999842.52954263205
 13750.824191594047 10558.775230685711 -999849.70225513377
 13057.571287516206 10907.013911281572 -999855.25796467694
 12228.626077573415 11499.258633987907 -999859.10395171377
 11221.82757999673 12361.948357531737 -999860.61669543246
 9966.0304965028281 13506.341662227262 -999859.11856173305
 8307.5727728625625 14966.068597365964 -999853.48978005897
 6072.6939866327466 16784.841569126744 -999840.68304967659
 3118.9361603910443 18985.3783922648 -999814.89669064758
 -662.65543982106499 21585.244270243937 -999766.79186576419
 -4862.1605158925868 24215.879679276855 -999694.92874900438
 -8059.6312911518417 25830.986852390532 -999633.83419214154
 0 -0 -0
 -0 0 -0
 0 0 0
 0 0 -0
 0 -0 0
 -0 0 0
 -0 0 0
 0 -0 0
 -0 -0 -0
 -0 -0 -0
 0 0 0
 35980.301750792736 24146.075961756029 -999060.75135677867
 33067.567074374747 22060.081677893082 -999209.63206133398
 29142.105634548134 19064.511114215216 -999393.45710043609
 25458.918232264652 16253.376699555163 -999543.73152369144
 22492.644954621341 13938.048737847412 -999649.84455574572
 20263.082024951444 12118.610843517848 -999721.23453394417
 18626.800551997901 10703.364698362138 -999769.21351146337
 17430.255318976389 9615.4278370652246 -999801.84524085862
 16537.270822275306 8799.784646895916 -999824.52583636844
 15846.417010045119 8217.9029666303759 -999840.66587570589
 15293.342445106284 7841.1286485894452 -999852.30428217398
 14829.441234628914 7642.9987879504379 -999860.82643645781
 14406.495255021204 7603.8106572067099 -999867.30867548462
 13974.195086575677 7717.0320515045523 -999872.5765256281
 13483.128384987867 7990.748977474158 -999877.16904614482
 12886.206709660299 8443.61078892572 -999881.31851409294
 12132.125388652625 9098.4447556347368 -999885.0083067466
 11146.852646232659 9982.3067799003966 -999888.04434668331
 9816.2010046109717 11139.518784076199 -999889.77058428596
 7997.3045560075197 12635.135715530352 -999888.19198212773
 5534.3678220239599 14552.917882882544 -999878.78433033312
 2292.2459276934396 16985.468718447006 -999853.10894201917
 -1672.0096616223589 19904.386490726436 -999800.48998893728
 -5847.3587643879355 22919.151046731611 -999720.22131733329
 -8951.5993542431479 24857.350894756448 -999650.92956266284
 0 -0 0
 0 0 0
 0 -0 -0
 0 -0 0
 0 -0 -0
 -0 -0 0
 0 -0 -0
 0 -0 0
 0 0 -0
 37203.675041409486 23413.891318987931 -999033.37094249029
 34151.721009045017 21211.697181304073 -999191.53511967312
 30106.648653068045 18014.612798155646 -999384.34219904279
 26274.725300452639 14976.896952649819 -999542.56105883548
 23103.96542483673 12484.175898874842 -999655.11659460526
 20664.115361341763 10553.521628208851 -999730.77251706924
 18863.471879009907 9090.4868641667526 -999780.74220162979
 17561.375826151776 7988.1217729821847 -999813.87667387014
 16624.9763479551 7163.3068357226384 -999836.13517246267
 15944.813297222378 6558.0583538814735 -999851.36635379144
 15438.442381670035 6132.9468046247848 -999862.01120970654
 15047.183134461475 5860.4530620048272 -999869.61018406122
 14726.199123763517 5720.1664814423411 -999875.20159007423
 14435.914993806371 5698.7359956757391 -999879.55712992908
 14138.107487871712 5791.5642777119783 -999883.27903804777
 13794.625745553165 6003.3111828198607 -999886.82787372603
 13365.448352692443 6346.7004821929477 -999890.53610048769
 12803.288696740081 6841.3344090520395 -999894.6304196514
 12044.305598203295 7515.7427497923309 -999899.21907839098
 10999.834506400075 8413.8723298617697 -999904.10059827671
 9556.0648382552918 9600.5185058465322 -999908.25162573077
 7578.7443314026877 11164.409100201041 -999908.95515731955
 4931.2964421631668 13211.585694467536 -999900.56321558147
 1534.1285346357174 15817.07780228632 -999873.72527706507
 -2529.9437664878169 18914.142126963139 -999817.91072781826
 -6799.6303814717348 22046.264602554471 -999733.82819816098
 -10048.925014699267 24002.477615662665 -999661.39275974792
 0 -0 0
 0 -0 0
 0 0 -0
 0 0 -0
 0 0 -0
 0 -0 0
 -0 0 -0
 39160.369888859561 22418.483251143301 -998981.41976659687
 35669.36415517133 20435.871620710052 -999154.67852173303
 31282.029876846038 17304.929059396443 -999360.78271915065
 27189.813937016777 14221.343515009101 -999529.12284069951
 23803.129602444307 11633.443091608005 -999648.97540234786
 21167.36546283578 9610.7217657054516 -999729.7518162122
 19196.251649888174 8082.4814471349164 -999783.06517776719
 17762.862825344819 6945.006910183678 -999818.10724914621
 16739.400589038851 6103.5622183432488 -999841.256898397
 16015.585508985267 5485.7278767510043 -999856.69363687665
 15503.396287892481 5040.4245872024594 -999867.11058196181
 15135.969420472073 4732.7521137890908 -999874.24383625982
 14863.554327544598 4538.928382913753 -999879.22914814402
 14647.594559722649 4442.7809112407613 -999882.84797339572
 14455.375030636873 4434.497247335471 -999885.68214915798
 14256.470033469126 4510.6399745035569 -999888.1973446859
 14020.365513299716 4674.2399720383728 -999890.78445176047
 13713.833727882666 4934.7031083029287 -999893.78409394913
 13296.905986312588 5308.2343159987804 -999897.50221692096
 12717.398197478078 5819.930261648552 -999902.19331434427
 11905.651274470998 6507.7825281881214 -999907.94788035192
 10771.481328287775 7426.9922732911282 -999914.40382453066
 9203.6190243076016 8652.9742082489665 -999920.20653360465
 7074.7510235357613 10278.561346601231 -999922.14650671638
 4259.262487723473 12394.645367939716 -999914.11203626089
 670.70234634089843 15042.109519320258 -999886.63612410135
 -3645.3673876584448 18101.911910093346 -999829.50150603591
 -8270.9948126492618 21062.83812650682 -999743.94096431788
 -11994.006683955182 22686.316207686323 -999670.68320551934
 0 0 0
 0 0 0
 -0 0 0
 0 -0 0
 -0 0 -0
 42381.533062893373 20290.591410713063 -998895.43874994351
 38199.492378111689 19181.677488865676 -999086.01332956692
 33118.207557103917 16515.123989760192 -999314.98287967616
 28499.362913850644 13624.304763148826 -999500.95779505162
 24737.927731026379 11084.836364186216 -999632.51314388204
 21829.895436549377 9044.2601740167229 -999720.78953232442
 19651.726005469503 7478.6037843480726 -999778.91563607345
 18059.249686476527 6307.4815613508645 -999817.02284823835
 16918.668210959324 5443.4415837031947 -999842.051330955
 16115.975653383008 4811.2888071679254 -999858.55341080797
 15559.098966432386 4353.4351475787871 -999869.47250217048
 15176.335959508315 4028.5562367807634 -999876.71718141891
 14913.126954388496 3808.02456023065 -999881.5417805207
 14728.087515835412 3672.3957002029128 -999884.7918375131
 14588.803531199042 3608.8523434158319 -999887.06512100238
 14468.092429052474 3609.8768313338478 -999888.81536435196
 14341.101321675718 3672.7907885079048 -999890.415705994
 14182.946256905178 3799.7057862957836 -999892.19732499728
 13966.274921420109 3997.7419678777701 -999894.4750442307
 13658.206087826175 4279.7821478668966 -999897.5631889645
 13216.56708727206 4666.1430569189042 -999901.76990712434
 12585.859275279998 5187.2023791519123 -999907.34024597507
 11693.474740197909 5886.3464631698616 -999914.30311492993
 10446.308502746639 6822.1548598408335 -999922.16339159827
 8728.5316299602273 8067.4521658018975 -999929.36198070378
 6402.3517040431743 9700.785393741975 -999932.45004620298
 3315.880601267354 11783.640282616743 -999925.07257170428
 -664.76296682624422 14307.648156562203 -999897.41938582179
 -5548.9173250275526 17075.949268347456 -999838.79774346855
 -10924.456886679418 19454.249033139455 -999751.06323338696
 -15371.837440648469 20093.554025134501 -999679.92662668647
 0 0 0
 -0 -0 -0
 0 -0 -0
 0 0 -0
 40983.998983569509 17355.606768690956 -999009.05638587964
 35942.244556248639 15449.680804817956 -999234.43816718401
 30577.764836586837 12964.082479555664 -999448.31425294897
 26175.107068382949 10616.986996415213 -999600.99207487633
 22810.53561209486 8651.9304014880217 -999702.36749015294
 20315.438661035303 7102.9583009868829 -999768.38864578237
 18499.362731974139 5924.0333693333278 -999811.32190386276
 17198.795254004166 5046.0869953477031 -999839.3563207275
 16282.897677109429 4401.490711208131 -999857.73694198905
 15649.58595435455 3933.4511025076181 -999869.80073501647
 15220.373354415098 3598.2096095325787 -999877.68908129854
 14935.548463831328 3363.8476621013665 -999882.8000925862
 14749.882057773933 3207.9095883457053 -999886.06865750207
 14628.822163244993 3115.0399551270107 -999888.14078785526
 14545.125932981897 3075.1845849314741 -999889.48516891734
 14476.010266057698 3082.497151292348 -999890.46567015979
 14400.804128223846 3134.8415994141815 -999891.38890611881
 14298.908253512489 3233.6998524069677 -999892.53642980184
 14147.714714714446 3384.4260472073165 -999894.1883162848
 13920.189716891713 3596.920330582338 -999896.63989953522
 13581.946259688018 3886.8518739075498 -999900.20657979115
 13087.795517806988 4277.3956669780973 -999905.20225408964
 12377.706899385428 4801.1848494716878 -999911.86661423009
 11371.949984658058 5501.8427978342943 -999920.20105575141
 9965.1915047137372 6433.8937277811647 -999929.64751015068
 8019.7214158120332 7658.9427485093865 -999938.51044171117
 5359.8309844995601 9234.5629662948741 -999942.99590458628
 1777.4117621524842 11188.225232935343 -999935.83015289786
 -2914.1737636274979 13459.707684237872 -999905.16743355733
 -8637.869426744257 15779.22649060316 -999838.18852008495
 -14048.029235587355 17454.173096651277 -999748.9708502373
 -0 0 -0
 -0 -0 -0
 0 0 -0
 44883.068309464725 15385.099639710508 -998873.77024737408
 39985.63755188902 14444.544371168808 -999095.84321399243
 33814.457509926629 12309.094315214496 -999352.32458850509
 28455.037078344321 10164.772415757572 -999543.38988690532
 24352.342268700184 8319.6409040448725 -999668.818660088
 21343.942186362743 6831.4309823120557 -999748.8523037571
 19178.875903808421 5676.7134252775795 -999799.95281243813
 17639.657200824426 4803.9462616104756 -999832.86833057879
 16558.800958878608 4156.5993116289355 -999854.25377550244
 15811.496204015039 3683.425898052451 -999868.20579586574
 15305.335639002395 3342.2738111730023 -999877.28042332712
 14971.801502450548 3100.5907350550751 -999883.10891666962
 14759.863521315667 2934.3466691066856 -999886.76160776208
 14631.197288116866 2826.3980484349809 -999888.96360545373
 14556.510263479562 2764.9023370939053 -999890.22563680226
 14512.64460976852 2742.0690535876161 -999890.92615331593
 14480.241383539333 2753.3484871558994 -999891.36494000314
 14441.815924372317 2797.0141899133778 -999891.79947853752
 14380.034019339597 2874.0769739543034 -999892.47137037211
 14275.968411823716 2988.4860786220665 -999893.6271808428
 14107.09161651572 3147.6464847389693 -999895.53568746906
 13844.814110075955 3363.274224915283 -999898.49960320757
 13451.348806703694 3652.5677959798863 -999902.85526333831
 12875.614255104749 4039.5339109079227 -999908.94621627242
 12047.691800841983 4556.1603946528176 -999917.04382150143
 10871.237497700451 5242.8667138340015 -999927.16161923006
 9213.3631100957155 6147.3157165659522 -999938.66034356458
 6892.8215483502463 7320.0319121814091 -999949.45179439313
 3672.8133067791896 8803.8433729731205 -999954.50035703008
 -715.80595074122368 10610.85376515612 -999943.44710299245
 -6426.1287732364353 12668.408785659742 -999899.10305381753
 -12915.174154809809 14633.81743800368 -999809.50668802008
 -17950.876866843522 15214.248029228725 -999723.10800371936
 -0 -0 0
 0 0 -0
 43694.111817548779 12936.496974782784 -998961.19626264635
 38066.002554124323 11631.02468666401 -999207.53535703861
 31814.485522820542 9762.0730844875561 -999446.11682672089
 26723.397244572734 8028.8927039981563 -999610.62265346933
 22947.811621716704 6605.8022918968618 -999714.84000081464
 20244.059742199857 5490.5461800070998 -999779.9917720895
 18337.844092196217 4639.2222785478152 -999821.08453997923
 17007.762730014638 4001.7369230203267 -999847.3494031569
 16090.264588248672 3531.9380156550346 -999864.30519312667
 15467.617594084548 3190.8001375173262 -999875.27802243689
 15055.288054506518 2947.0616738724993 -999882.31964020955
 14792.142838894661 2776.7003205179226 -999886.73480828013
 14633.447043370174 2661.8732086195159 -999889.38221117761
 14545.923598724303 2589.7185259060902 -999890.8487753137
 14504.220476414115 2551.2556273907267 -999891.55346122186
 14488.295228227729 2540.5249033695623 -999891.81166493951
 14481.411148111712 2554.0030006094116 -999891.87705463066
 14468.499687082736 2590.2924207263304 -999891.97061581607
 14434.700538252435 2650.0454113455194 -999892.30254047294
 14363.865597179489 2736.1136563020459 -999893.0908087953
 14236.835656547288 2853.9153611751353 -999894.57828193053
 14029.253608955401 3012.0362137112297 -999897.04854100989
 13708.650871546512 3223.0387750845443 -999900.83753957134
 13230.402043297117 3504.4284351753045 -999906.33333483571
 12531.994645917663 3879.6471412096648 -999913.94502139755
 11524.873158264269 4378.9077851158718 -999923.99834452209
 10083.205219189567 5039.5553315393418 -999936.46390886663
 8029.9366740570977 5905.3859727047911 -999950.32203281182
 5124.8973457975871 7023.352590300321 -999962.20325849694
 1074.814165525423 8432.0731688005617 -999963.87180566974
 -4366.1649909029829 10119.633616219706 -999939.26296487916
 -10995.607558781927 11872.564334174996 -999869.06084274047
 -16925.236695535848 12966.276178462933 -999772.68018528284
 0 0 0
 -0 -0 0
 42095.792398013415 11013.909288836388 -999052.87050514028
 36227.741234446912 9463.2519584209713 -999298.75293999119
 30145.084710080799 7808.134226920336 -999515.03585874918
 25362.23686157956 6417.9736045689615 -999657.72470190423
 21884.019016097409 5330.3570253634225 -999746.30632260162
 19430.255687717396 4502.9982973879978 -999801.07429940475
 17724.486950069109 3883.5534217324657 -999835.36673553311
 16551.1229728898 3425.8317438570493 -999857.15179979545
 15753.877369552603 3092.0870278390012 -999871.11886764539
 15222.132201048389 2852.3729583261279 -999880.06813805446
 14877.802135922146 2683.4443123078545 -999885.71853498684
 14665.316259633842 2567.6423850576366 -999889.16171323077
 14544.533582739768 2491.8489098481209 -999891.11768825655
 14485.857113933233 2446.5435508928135 -999892.08136094792
 14466.838296611397 2425.019340676844 -999892.40914755268
 14469.768422174544 2422.7771270379558 -999892.37218452757
 14479.882684039148 2437.1183629670263 -999892.1909143714
 14483.932869228986 2466.9169801608214 -999892.05917901604
 14468.90793301731 2512.5656858138982 -999892.1630440458
 14420.72889829859 2576.0757929468818 -999892.69744885666
 14322.708846458314 2661.3400524956833 -999893.88300980441
 14153.565368480753 2774.5520509082085 -999895.9838144551
 13884.675090091016 2924.7933804630184 -999899.32562299725
 13476.169712349745 3124.7730834995841 -999904.30974321754
 12871.285111031051 3391.7202778840947 -999911.40920240898
 11988.248856606822 3748.4207029466461 -999921.11250417435
 10709.014210821555 4224.4151398718959 -999933.73347005271
 8865.0017259320994 4857.2850920619785 -999948.90795776842
 6223.3449479048995 5693.3990141039076 -999964.42695994198
 2488.2704083793001 6784.9489026802321 -999973.88614841481
 -2631.6396320906879 8171.0729618121559 -999963.15334091161
 -9109.1348041531055 9804.650510889036 -999910.44223544304
 -15330.724416427771 11308.635658317366 -999818.52535768447
 -0 0 -0
 47207.623426154372 10519.133233254399 -998829.70927304495
 41728.619226566618 9413.5469249561702 -999084.63478913321
 34840.288371264942 7706.7294215381917 -999363.17754249403
 28853.372414404104 6268.9415294080509 -999563.99658672011
 24332.565331079739 5175.4827074266586 -999690.5224333948
 21098.605158723873 4362.4834974638115 -999767.88185962976
 18841.477605456363 3763.1794180446927 -999815.40156286373
 17287.687472312726 3324.399601820196 -999845.03010673961
 16229.944042619858 3005.9158683526884 -999863.76741342386
 15519.745772687445 2777.5010451701105 -999875.70376477053
 15052.90739025272 2616.3859188029278 -999883.27543960058
 14756.560001771179 2505.4198755068724 -999887.9771295191
 14579.336988227738 2431.7619671367706 -999890.75876653579
 14484.463321424939 2385.9037328127688 -999892.24808759673
 14445.008463743661 2360.9219115002302 -999892.87815155985
 14440.643244454308 2351.9001091891423 -999892.96246576461
 14455.373775666534 2355.5076387195345 -999892.74112415139
 14475.900576273998 2369.7119017389005 -999892.41059626418
 14490.323354189073 2393.6235458916985 -999892.14473132615
 14487.000726819684 2427.4531609818537 -999892.11132056278
 14453.367168600258 2472.5846030750049 -999892.48747196351
 14374.534155742751 2531.7541868504622 -999893.47582057107
 14231.436842216955 2609.3527041495972 -999895.32326332619
 13998.246525143795 2711.851946943495 -999898.34230947646
 13638.628920399799 2848.3877085865529 -999902.93253326998
 13100.310437991058 3031.531647515525 -999909.59175432392
 12307.254045745705 3278.3411559641349 -999918.88869903772
 11148.803386504938 3611.8135632408412 -999931.32713493577
 9465.7816814703292 4062.9226526887355 -999946.94441089057
 7036.089226491792 4673.2661812101614 -999964.32637949463
 3570.3544309867607 5497.5910409720309 -999978.51430017408
 -1247.1783454974427 6602.3153029385876 -999977.42673463142
 -7560.3132710636264 8040.1762409085686 -999939.09676002699
 -14672.819073475761 9675.8805825009622 -999845.53092734795
 -20126.160609079281 10452.897635095074 -999742.80422024941
 46704.770574781738 7869.9126735999607 -998877.73470033205
 40616.138516777006 7099.9495184738253 -999149.59841298102
 33639.858651690993 5947.8004773758939 -999416.32144936256
 27868.746072629554 4934.9653439895847 -999599.40931824956
 23582.669469056906 4162.4943386675968 -999713.22455071774
 20542.114277382621 3596.9285897256736 -999782.51817369508
 18433.307875617309 3188.5449324223682 -999825.00785986369
 16990.631070164709 2896.0769513071887 -999851.45456419152
 16015.371353515446 2688.6886838332753 -999868.13072203193
 15366.005099871596 2543.812970227897 -999878.7000945881
 14943.677135173373 2444.8921018322671 -999885.34793559741
 14679.572015380076 2379.703292472554 -999889.41747459501
 14525.44662390074 2339.1982244340102 -999891.76391849702
 14446.953176126166 2316.7023428190437 -999892.95348761277
 14419.068720214336 2307.3410130404736 -999893.37763318105
 14422.976899512367 2307.6302783482215 -999893.32059967995
 14443.9228676486 2315.1827302791603 -999893.00078614347
 14469.667292194958 2328.5182558645929 -999892.59759795479
 14489.293402685116 2346.9556184150492 -999892.27028516249
 14492.148444310988 2370.5882332982701 -999892.17315913434
 14466.757356202852 2400.3292269348813 -999892.46989423747
 14399.510246458061 2438.0384932346415 -999893.34934930294
 14272.921746397142 2486.7281603647175 -999895.04443610355
 14063.161981012179 2550.8729324083538 -999897.85504439322
 13736.484721922707 2636.843678438373 -999902.17323641223
 13244.016065010279 2753.5245595679198 -999908.50288462348
 12514.26980469674 2913.1858793231959 -999917.44979237579
 11442.742983111995 3132.7330592760841 -999929.62233179295
 9878.4910460339761 3435.4112218252844 -999945.30518643372
 7609.6169188585091 3852.7985623903037 -999963.62417519267
 4356.0763638878898 4425.7732967404436 -999980.71837882861
 -202.91503395106631 5198.7550004629829 -999986.46579437982
 -6286.4814392867447 6184.8637521993496 -999961.11304964265
 -13542.319739023931 7232.5000174925781 -999882.14131445659
 -19796.125330380255 7796.5069480179591 -999773.63833085424
 46184.622433229291 5319.548048435392 -998918.75698640302
 39823.815226608902 4952.3122689833999 -999194.44471233292
 32838.292221857155 4347.7637213589078 -999451.22117818997
 27213.767076327174 3765.7285004430237 -999622.54384861502
 23089.298524431419 3302.4550632963246 -999727.95203705528
 20182.606015900841 2961.054692696242 -999791.92563728685
 18175.590484281514 2718.1516345943269 -999831.11552013585
 16807.966173504952 2549.0390576097852 -999855.48689447762
 15887.307067911781 2433.824430776298 -999870.82664350676
 15277.270287002159 2357.6496388746941 -999880.51611217938
 14882.907844469282 2309.6188040593156 -999886.57592502621
 14638.311967713556 2281.7337054392433 -999890.25073456613
 14497.42228396053 2268.0987598693696 -999892.33444163168
 14427.564404130018 2264.3610655286088 -999893.35334040981
 14405.016985876571 2267.3269578206327 -999893.67170419835
 14412.004938507789 2274.690983864647 -999893.55428194476
 14434.627633283737 2284.8548528570709 -999893.20477908512
 14461.388929244325 2296.8059756541898 -999892.79070935759
 14482.057131359043 2310.0561558373197 -999892.46104858746
 14486.671836250529 2324.6229771692219 -999892.36044042394
 14464.50745929066 2341.0633522685253 -999892.64296040335
 14402.831309916372 2360.5495294338493 -999893.48745562753
 14285.229169985179 2385.0053861124625 -999895.11648815905
 14089.237861116289 2417.305371406379 -999897.8197852188
 13782.894909593655 2461.5700289958336 -999901.98143663222
 13319.716011248012 2523.5847613088522 -999908.10412023985
 12631.454027638574 2611.3998665807644 -999916.81001965585
 11617.991745085354 2736.1379840774825 -999928.76537118549
 10134.063868081492 2912.9390829785852 -999944.40622237429
 7974.1080936485896 3161.5276908771752 -999963.20849457779
 4861.5830884935103 3504.5770056768488 -999982.04131368548
 464.11199925583833 3958.480833806324 -999992.05748322827
 -5499.1339722584571 4503.9979780874455 -999974.7364447607
 -12841.965120249512 5024.1885876589486 -999904.91620997945
 -19459.892877588678 5280.3785741012589 -999796.69441907399
 45888.361225452223 3329.0928626526947 -998941.02701048087
 39423.396301055684 3210.5762529365143 -999217.43781031668
 32426.661690186273 2981.0264554354776 -999469.67192251608
 26868.658934327323 2741.6865339114934 -999635.21262609598
 22829.14915471086 2545.3622558380639 -999736.14072907181
 19997.262521163506 2402.5621315130015 -999797.14801896864
 18048.169771411114 2306.1670709985597 -999834.45887873985
 16722.973103813369 2245.2896526714726 -999857.64028932876
 15832.461330764592 2210.1886565889699 -999872.21595277474
 15243.286810758198 2193.2757492546643 -999881.40884241497
 14862.85616826914 2188.8848587004804 -999887.1457767603
 14627.026386248443 2192.8186671940839 -999890.61484013777
 14491.065916368745 2201.9531212637517 -999892.57443540357
 14423.314545109091 2213.954578343807 -999893.52753313573
 14400.850514055242 2227.0806742709447 -999893.82217120554
 14406.541563876619 2240.049932475792 -999893.71121958154
 14427.029403654429 2251.9503546100427 -999893.38908815
 14451.290468680365 2262.1868148604403 -999893.01563447504
 14469.537539319437 2270.449152840984 -999892.73301891866
 14472.249938938281 2276.7093039911369 -999892.67952938331
 14449.177242561398 2281.2347835149935 -999893.00289824768
 14388.125252781001 2284.63131406701 -999893.8755245324
 14273.333243646865 2287.9071801781697 -999895.51326068596
 14083.156947199537 2292.5781333447289 -999898.19920625084
 13786.705647340092 2300.8151036259951 -999902.31172712683
 13338.922625010053 2315.6632911039269 -999908.35122361395
 12673.485191751395 2341.3409488049097 -999916.94699892763
 11692.796974262246 2383.61867393176 -999928.79589545564
 10254.592662384437 2450.1550001681221 -999944.41849024966
 8155.8578822478066 2550.3573573871945 -999963.48816322
 5119.0170191579191 2693.5256299264383 -999983.27015227522
 799.12521253790021 2882.5547557365135 -999995.52612847975
 -5122.3821735241117 3099.4751218107235 -999982.077066803
 -12520.773988114752 3286.2292906068528 -999916.21194767521
 -19279.215489506158 3357.3089162601382 -999808.50182770006
 45850.826203935721 1672.5036124582 -998946.89772183716
 39350.890359669153 1719.9472362386443 -999223.97349613556
 32340.650710157453 1763.4038981674246 -999475.34872969007
 26795.45021919096 1801.6271384603713 -999639.31394638785
 22779.215798765756 1838.4732734602508 -999738.82956681063
 19969.887603958927 1876.0965762101487 -999798.82168900443