# OOMMF OVF 2.0
#
# Segment count: 1
#
# Begin: Segment
# Begin: Header
#
# Title: Oxs_TimeDriver::Magnetization
# Desc: Oxs vector field output
# Desc:  MIF source file: /mnt/gpfs/work/plgrid/groups/plggspinsym/MF/switching-obrazki/p-ap/Anisotropy.mif
# Desc:  Iteration: 20500, State id: 143650
# Desc:  Stage: 0, Stage iteration: 20500
# Desc:  Stage simulation time: 3.01827e-09 s
# Desc:  Total simulation time: 3.01827e-09 s
# meshunit: m
# meshtype: rectangular
# xbase: 1.0000000000000001e-09
# ybase: 1.0000000000000001e-09
# zbase: 3.4999999999999998e-10
# xnodes: 35
# ynodes: 35
# znodes: 5
# xstepsize: 2.0000000000000001e-09
# ystepsize: 2.0000000000000001e-09
# zstepsize: 6.9999999999999996e-10
# xmin: 0
# ymin: 0
# zmin: 0
# xmax: 7.0000000000000005e-08
# ymax: 7.0000000000000005e-08
# zmax: 3.4999999999999999e-09
# valuedim: 3
# valuelabels: Magnetization_x Magnetization_y Magnetization_z
# valueunits: A/m A/m A/m
#
# End: Header
#
# Begin: Data Text
 -0 0 -0
 0 0 -0
 -0 -0 0
 -0 0 0
 0 0 0
 -0 0 -0
 0 0 0
 0 -0 0
 -0 0 0
 0 0 0
 0 0 0
 -0 -0 0
 0 0 0
 20296.08712045729 33537.406231384244 -999231.36021187308
 17921.852208014639 33032.605564760044 -999293.57757519756
 15800.919614096843 32519.061026598545 -999346.20708205877
 14174.58676828129 32198.261543435372 -999380.98493193742
 12746.407209295852 32108.857312917855 -999403.09704608831
 11186.561508717519 32263.616383135373 -999416.78988272627
 9179.4069076378419 32675.155349407647 -999423.87039319624
 6512.2487536159533 33310.472279947098 -999423.8355435885
 3707.9449846228895 33922.162016804592 -999417.59943884157
 0 0 0
 -0 0 -0
 -0 0 -0
 -0 0 0
 0 -0 0
 -0 0 0
 -0 -0 0
 0 0 0
 0 -0 0
 0 -0 -0
 0 -0 0
 -0 -0 0
 0 0 -0
 -0 -0 -0
 -0 -0 -0
 -0 -0 -0
 -0 0 -0
 0 0 -0
 0 0 -0
 -0 -0 0
 0 0 0
 0 0 -0
 0 0 0
 25609.29064805069 31445.45070074383 -999177.33554296079
 23531.199065356483 29969.175413675686 -999273.80191595689
 21826.841225642856 28022.876948232541 -999368.95457566355
 19881.124897571328 27607.783200531398 -999421.10803182423
 17600.122057804325 26665.348986957157 -999489.46711156203
 15724.683562623895 26023.764838481584 -999537.64210783329
 14265.143268297636 25698.43343944462 -999567.95477160695
 12969.572644991387 25649.787503937663 -999586.85394837451
 11569.425340554866 25881.7558652478 -999598.06077774125
 9823.170083426463 26448.688264829678 -999601.90687022102
 7600.6868406960602 27441.766948790792 -999594.50728096638
 5237.1620140065352 28824.350411294796 -999570.77236051974
 3785.2974239715577 29534.603871363834 -999556.59104303527
 1744.9988702331259 31138.896598198575 -999513.54372894287
 -979.44214950956859 32292.534365420554 -999477.98020633438
 -0 0 -0
 0 -0 0
 -0 0 -0
 0 -0 -0
 -0 0 0
 -0 0 0
 -0 0 -0
 -0 0 0
 -0 0 -0
 -0 0 0
 0 -0 -0
 -0 0 -0
 -0 0 0
 -0 0 0
 -0 -0 0
 0 0 -0
 0 -0 -0
 -0 -0 0
 30666.555716353621 28981.936421290076 -999109.40828408184
 27986.652059044802 27161.203386439363 -999239.21877452685
 25058.821361807146 25976.910443340792 -999348.41551671841
 22434.19850448109 23972.209883619071 -999460.87461728964
 20430.090905476813 22017.289503773467 -999548.82339408551
 18618.751208398255 20641.051886611789 -999613.56987610657
 16883.24118792815 19609.565506234685 -999665.1544930666
 15435.414167391966 18995.510935011855 -999700.41440113401
 14255.487691069871 18721.682296201481 -999723.1015049566
 13185.935845334336 18728.802836633859 -999737.64710557403
 12048.204034034292 19014.520571454999 -999746.61229083058
 10691.604709647299 19630.246268114453 -999750.14029515686
 9053.1483328010891 20657.628268511282 -999745.6190949697
 7258.7744119048002 22102.142125929557 -999729.36613239581
 5490.0853632335793 23693.584492790153 -999704.19275733118
 3177.3402558732801 25608.743812652887 -999666.99292776303
 114.68473673181619 27610.665088225243 -999618.74633321911
 -2997.9627268884769 28740.093869261738 -999582.42242642201
 -6237.3136889084481 30063.347304635823 -999528.53439348447
 -0 0 -0
 -0 -0 -0
 0 0 -0
 -0 0 0
 -0 0 -0
 0 0 -0
 0 -0 -0
 -0 -0 -0
 -0 -0 0
 0 0 0
 0 0 0
 0 0 -0
 -0 0 0
 0 0 0
 -0 -0 -0
 33170.143260198623 25091.909392173042 -999134.69446273998
 29825.336453921394 24022.296105974594 -999266.42022796266
 26239.533487787477 21651.283131092863 -999421.18689825688
 23221.523620977281 19486.592764654808 -999540.41116062179
 20814.482038882001 17519.525575670938 -999629.84327252663
 18977.497608420283 15887.301145970599 -999693.67720658274
 17476.993964992693 14679.811232628592 -999739.49498062837
 16189.586310657907 13850.056704535795 -999773.01085014828
 15118.091449144638 13370.622228114651 -999796.31414211972
 14217.053607327753 13179.692185443968 -999812.06789107283
 13386.432457185652 13232.955861001035 -999822.8304581017
 12513.533710840253 13524.861754206166 -999830.23038343736
 11503.459865953193 14084.916431280089 -999834.6290963504
 10304.32303105463 14956.216490352806 -999835.05265376903
 8913.682216475645 16147.683049968802 -999829.88483114529
 7284.8832125888721 17606.098814322009 -999818.46140242857
 5158.844785526443 19384.232311369564 -999798.79868810484
 2365.0397464252405 21474.438366139209 -999766.60030421929
 -1059.3004241314577 23673.456173300241 -999719.18324868719
 -5136.3788343049046 25961.308463656507 -999649.75270107738
 -8666.6676098788193 27001.248850435812 -999597.82984611194
 -0 -0 -0
 0 -0 0
 -0 0 -0
 -0 -0 -0
 0 -0 -0
 0 -0 -0
 0 0 -0
 0 -0 -0
 -0 0 -0
 0 0 -0
 -0 0 0
 -0 0 0
 -0 0 -0
 34780.560572890536 22639.469607638857 -999138.5124306439
 31515.982137916148 20935.643360002246 -999283.96450007416
 27504.104088731699 18399.888467784316 -999452.33421241737
 24037.147133614541 15950.619858128943 -999583.81003486575
 21349.446954714385 13934.798845752319 -999674.95842191437
 19317.484902068529 12317.407900883942 -999737.52367291949
 17790.072521515071 11067.32156972339 -999780.4897641039
 16601.921202423677 10161.154296949289 -999810.54563139193
 15642.11628538486 9558.8966244005478 -999831.96172828914
 14855.176398091084 9222.2228721494503 -999847.12548443035
 14185.314100884258 9108.391248220034 -999857.89693972457
 13561.462802720549 9187.6234825892589 -999865.82814965362
 12908.303216213009 9452.9807000113815 -999872.0002400123
 12158.85499124023 9917.9948901182925 -999876.89023332321
 11260.779631063777 10605.058534159774 -999880.35663052578
 10166.314997237458 11529.515856754948 -999881.85117217037
 8791.7398458343923 12701.66814022281 -999880.67934976052
 6981.2051279646021 14169.280991867903 -999875.23934295669
 4578.5258574983909 15984.187021673199 -999861.76187822502
 1457.6889245982195 18172.772570814024 -999833.79892864649
 -2455.9042852979073 20767.139954399318 -999781.32330637972
 -6721.9535802990731 23374.217276192219 -999704.18690069998
 -9981.100433404561 24904.724387464612 -999640.0013691542
 0 -0 -0
 -0 0 -0
 0 0 0
 0 0 -0
 0 -0 0
 -0 0 0
 -0 0 0
 0 -0 0
 -0 -0 -0
 -0 -0 -0
 0 0 0
 36141.019835688028 21187.622492712493 -999122.07028888236
 32877.222134045158 19064.696028516788 -999277.55184937932
 28744.689274539898 16143.743619217894 -999456.41344706342
 24988.759600883826 13486.69158948296 -999596.75421820942
 22004.659967820869 11341.18947915528 -999693.53922134486
 19762.148869720248 9691.1636695878806 -999757.74006445205
 18105.106526745811 8442.1302561078337 -999800.44786667032
 16879.635370696516 7518.7177792944221 -999829.25882007845
 15954.534760618873 6868.2387732740226 -999849.12867728493
 15234.662746237425 6448.2133333477614 -999863.15343441663
 14655.637728826816 6223.2381785639091 -999873.2337598271
 14162.864253521073 6162.7124895540646 -999880.71001040295
 13701.1209809621 6246.0545570287759 -999886.62661640579
 13215.227129545026 6466.4853026485989 -999891.76531249867
 12653.108402840677 6829.9334101318173 -999896.62008497631
 11965.2924760515 7350.422125115264 -999901.3966739648
 11096.448691412514 8046.1813892205719 -999906.05948333477
 9968.5087254912487 8944.1115287142966 -999910.31182939187
 8469.749440907297 10093.413100795431 -999913.18941015319
 6469.946078789224 11562.708777429092 -999912.21792888688
 3832.9777960918846 13436.035080965848 -999902.38585699827
 451.02274342690225 15801.676731848895 -999875.04398847127
 -3601.9034966158547 18612.288978442415 -999820.28834695276
 -7844.7471891182822 21462.289253013594 -999738.88094920013
 -11065.942932835524 23162.466035793885 -999670.4682414839
 0 -0 0
 0 0 0
 0 -0 -0
 0 -0 0
 0 -0 -0
 -0 -0 0
 0 -0 -0
 0 -0 0
 0 0 -0
 37712.52315454901 20140.042645870428 -999085.65412558115
 34278.352397206356 17867.319555453385 -999252.59741910908
 29971.661615724322 14730.853459516156 -999442.19515505084
 26010.846444944531 11861.100167850345 -999591.29156371986
 22787.238980719398 9571.3698023332145 -999694.51865044388
 20322.176195695258 7837.0775431153752 -999762.76654527115
 18497.516468173919 6553.0728001491216 -999807.43101928674
 17164.869328557183 5613.8711642009266 -999836.91255698563
 16192.187937585644 4940.2864244356197 -999856.69304147712
 15473.467062853155 4477.0296338090748 -999870.2555945511
 14929.129460547714 4184.0666351295968 -999879.80011596531
 14500.018900165656 4031.1492716147268 -999886.74323017418
 14137.359342758284 3995.2982062576589 -999892.08050822013
 13796.08397400976 4061.6602858333717 -999896.58014351886
 13432.694448334581 4224.6268444288316 -999900.85270884889
 13004.617049995615 4487.4514968196936 -999905.36687950965
 12468.030212151112 4860.9434754490248 -999910.45571648935
 11772.42631302916 5363.3050542886194 -999916.3189675418
 10852.734454522601 6023.5335206689751 -999922.96463216853
 9623.9215394302428 6887.5431014414198 -999929.96848990803
 7982.6075033467523 8020.8504485845751 -999935.96991783869
 5811.3265787207301 9509.0510282784126 -999937.90128784347
 2994.2875905659448 11448.559513306458 -999929.97991204134
 -533.21674464647447 13896.533303822784 -999903.296345221
 -4696.5158250050144 16769.755322199991 -999848.34752353269
 -9076.6338180294897 19611.705705856162 -999766.47059092787
 -12514.195496618982 21205.451757021732 -999696.81590312836
 0 -0 0
 0 -0 0
 0 0 -0
 0 0 -0
 0 0 -0
 0 -0 0
 -0 0 -0
 40027.784786675351 18963.046151731309 -999018.60809782648
 36140.625323002212 16849.487355187324 -999204.6587046769
 31457.437162285827 13728.307979121289 -999410.80803001684
 27191.221463248938 10779.886640063705 -999572.12422084075
 23707.228224628227 8383.507760517974 -999683.79207003978
 21011.93295046622 6560.2081393888184 -999757.70181722182
 18994.225733252897 5215.7092744647407 -999805.98906265746
 17514.652502812212 4239.9361783327495 -999837.61676029651
 16441.872751702791 3539.4804195526594 -999858.55844653165
 15666.549981264696 3044.9454031169785 -999872.6356487493
 15102.72366635417 2707.2703433084439 -999882.28228384256
 14684.635284613321 2491.6497055134055 -999889.07043146668
 14361.421639732853 2373.0141927526297 -999894.05357374088
 14091.091384960604 2333.6346204530637 -999897.99244374875
 13836.010058132695 2362.6160937278401 -999901.48658298585
 13560.384299104819 2456.0097692061104 -999905.03748789767
 13228.605091312827 2616.7372659202888 -999909.07421296032
 12803.064039072022 2854.4804329874346 -999913.96304515586
 12240.685895591771 3186.3892920141675 -999920.00306628784
 11488.55782085924 3639.3306128366321 -999927.38151922182
 10480.171550314102 4253.2059434563698 -999936.03607604734
 9133.4132920265565 5083.4889893417039 -999945.36795833614
 7349.7835425259846 6202.054134416604 -999953.75653396698
 5017.4277440897813 7692.3078597410004 -999957.82601998956
 2023.6775484108214 9629.2657430918098 -999951.58981344139
 -1715.6049355393818 12035.803200974689 -999926.09533955716
 -6172.3260451821016 14782.285867124681 -999871.68497549451
 -10973.583060623298 17365.582172394639 -999788.98625191185
 -14964.785605186344 18547.079400176422 -999715.99018797069
 0 0 0
 0 0 0
 -0 0 0
 0 -0 0
 -0 0 -0
 43551.278560872677 16856.647540808259 -998908.97461650544
 38976.621016064229 15519.316872066936 -999119.59935635049
 33585.993487819156 12770.516030957526 -999354.23897722026
 28770.435677201869 9942.0220596881973 -999536.60174518311
 24882.295916435214 7543.6860568344491 -999661.92492792418
 21883.136015478656 5671.945734445384 -999744.44604094385
 19628.98343361666 4272.6344951827923 -999798.203440991
 17964.820914738528 3250.6890179333272 -999833.33522663161
 16752.327565791402 2513.683769861892 -999856.51016284991
 15876.987272231632 1986.0796576796013 -999871.98018683924
 15248.05967574522 1611.2037632775973 -999882.44343950669
 14795.273453776239 1348.2160996033947 -999889.63500817271
 14464.41854194145 1168.053663932981 -999894.70257966744
 14212.732892614675 1050.2278985740347 -999898.44246557588
 14004.633735873871 980.94491476184749 -999901.44913436275
 13808.419944898391 952.35027692413416 -999904.2056955134
 13594.03269169606 962.36254275948045 -999907.1337546868
 13331.361468811716 1014.6767267614789 -999910.61862174864
 12988.429369746154 1118.9604179989176 -999915.02070430457
 12529.035946572929 1291.5096321004028 -999920.67448429088
 11909.862857468668 1556.5929483949049 -999927.86349071655
 11077.35144833509 1948.2299516240282 -999936.74634196016
 9964.4732282942896 2511.7231318007493 -999947.19886611588
 8487.1195081962251 3304.1168740581602 -999958.52494697785
 6540.5248528414404 4391.7116412254436 -999968.96672022261
 3997.2532310823071 5841.068552308283 -999974.95162867638
 711.10192127444861 7698.2490699736991 -999970.11520110641
 -3455.3367302331249 9941.6223897594227 -999944.61086219177
 -8528.7156442391315 12373.763187198074 -999887.06912033178
 -14123.661240138701 14386.965860625247 -999796.74804757151
 -18807.894502714305 14662.902968707685 -999715.59074614046
 0 0 0
 -0 -0 -0
 0 -0 -0
 0 0 -0
 41844.066210373145 13739.582541685326 -999029.67823511735
 36576.728543451623 11679.895499558568 -999262.5895980387
 31046.391762165862 9159.4026451925711 -999475.97615036904
 26523.89216823312 6873.5919319855293 -999624.54795698181
 23060.035214558931 5018.2852473377097 -999721.48700979678
 20471.597704803738 3593.7513349508372 -999783.97598619026
 18561.523802532683 2533.7864372533932 -999824.50948174833
 17164.28586442352 1758.4551117618028 -999851.13648301887
 16149.585515663766 1194.8803620934693 -999868.87297714828
 15417.183848112443 783.84176690680101 -999880.84091769578
 14890.73777059237 480.13033893117307 -999889.01154253387
 14512.134055347631 250.44104903863953 -999894.66207418079
 14236.585172229656 70.795304931954632 -999898.65217963909
 14028.478537228919 -75.520485932361836 -999901.59320134437
 13857.978821509167 -199.24007279172841 -999903.95375074714
 13698.43455999992 -305.70624373343963 -999906.12531092053
 13524.491551048704 -395.05119009643283 -999908.46184180421
 13310.608787087613 -462.17071292287881 -999911.3031124057
 13029.596235675932 -496.56334764300931 -999914.98790986068
 12650.86500059114 -481.94811164916632 -999919.85845904378
 12138.205628969195 -395.63042709496057 -999926.25100087945
 11446.957980180974 -207.71018571484345 -999934.45985698421
 10520.307369288992 119.5644409210902 -999944.65288694843
 9284.2622929845402 631.87849593256681 -999956.70066420478
 7640.9835524393402 1381.5156245703058 -999969.85293804249
 5460.7003367771276 2423.1233326465717 -999982.15445334185
 2574.7018574159542 3803.8994874193272 -999989.45057387231
 -1219.4683714324185 5541.8664172254803 -999983.90017715027
 -6101.0366957049673 7578.3380783932844 -999952.67195163143
 -11970.114101618032 9676.3563470753852 -999881.53523116873
 -17414.079276953689 11228.664897641605 -999785.31041796785
 -0 0 -0
 -0 -0 -0
 0 0 -0
 45915.408720335159 11785.997052609684 -998875.80084589124
 40703.453505412457 10684.50917277907 -999114.14269665396
 34361.031484519051 8465.3634407789814 -999373.63240038254
 28915.009240941014 6311.4737972962448 -999561.94782469701
 24738.084855321435 4507.4503350032428 -999683.80503495608
 21645.219229203864 3086.2698536793605 -999760.95113927615
 19381.136970116317 2004.8083543194032 -999810.15811663354
 17729.924686181883 1197.9253801662667 -999842.09490569367
 16527.525955930156 600.12948061238558 -999863.23101231339
 15653.025821039224 154.15247974087976 -999877.47200327425
 15017.801117440184 -186.59776155660435 -999887.20905453758
 14556.61038019602 -458.37938267397845 -999893.9418671265
 14220.84068216667 -688.53996569252229 -999898.64166474808
 13973.424634235078 -897.05317897657949 -999901.96454431745
 13784.97787988818 -1097.7185477020419 -999904.38012784044
 13630.863910429274 -1298.8765004107336 -999906.25184008712
 13489.004911056099 -1503.727258588834 -999907.88853315939
 13338.25965358921 -1710.3963986973909 -999909.57859877171
 13157.134494037973 -1911.9105191272047 -999911.61329893174
 12922.556993107441 -2096.1375597751958 -999914.3031920736
 12608.442741314138 -2245.7171915798031 -999917.98860003252
 12183.793797325521 -2337.9607147824513 -999923.04159290204
 11610.02870908831 -2344.7708863236226 -999929.85218107433
 10837.133907543377 -2232.6519263026107 -999938.78402332519
 9798.090843067268 -1962.9654828498717 -999950.07084471185
 8401.0145263249615 -1492.6896813570445 -999963.59675362392
 6518.787413142687 -776.20803446789432 -999978.45122369996
 3977.6469240966617 230.81798273516722 -999992.06249250099
 552.29106946648801 1562.8038379239081 -999998.62630842568
 -4004.7274315349159 3223.507458905749 -999986.78549161914
 -9804.9983405771109 5126.7312446247242 -999938.78744365508
 -16264.30532030438 6868.2393443209867 -999844.13768384745
 -21235.352495332863 6925.4447296565786 -999750.51788918581
 -0 -0 0
 0 0 -0
 44442.195912946736 9255.4728066125335 -998969.08232715668
 38620.378799525839 7800.5945348629903 -999223.50706250069
 32282.950075730245 5861.2459900924659 -999461.58351877227
 27152.102770202211 4112.0734552762406 -999622.85596471583
 23325.410911190313 2700.1854566045004 -999724.27909115236
 20541.744756402048 1607.1908690173907 -999787.70429520344
 18527.096759341945 777.30388469591946 -999828.05645987985
 17065.572117536187 150.8885180177916 -999854.36113513866
 15999.994436268033 -326.13585062112088 -999871.9387068759
 15218.640923362866 -699.68313676340108 -999883.94497159205
 14642.323502376987 -1007.2715903338778 -999892.2880822689
 14214.493028880361 -1278.7209983968696 -999898.15134369559
 13894.119831872658 -1537.0860181851701 -999902.29062677431
 13650.610100397877 -1799.4787533338258 -999905.20686718251
 13460.132981124008 -2077.5966222059265 -999907.2499049129
 13302.934770408008 -2377.955272614648 -999908.68445834366
 13161.363416557277 -2701.890910684127 -999909.7350753838
 13018.390454286138 -3045.4778184548818 -999910.61929296295
 12856.423034687703 -3399.4650953293608 -999911.57410233968
 12656.181220214019 -3749.3313349723826 -999912.87800060969
 12395.39365985208 -4075.4753793306763 -999914.86873455858
 12047.029767674774 -4353.5610332000633 -999917.95442431537
 11576.724924511716 -4554.9825430973642 -999922.61279263708
 10938.956457333554 -4647.4322148449637 -999929.3678082634
 10071.420661472052 -4595.5079559900305 -999938.72201874759
 8887.0240465145343 -4361.3302091983105 -999950.99860063312
 7263.1706172862332 -3905.1764175139028 -999965.99739677785
 5029.3355629245052 -3186.4559963995052 -999982.27598391904
 1958.4984793715714 -2166.53465711231 -999995.73519654875
 -2217.4916353541903 -819.5842750622553 -999997.20550232683
 -7704.0629174132064 825.16384254040622 -999969.98280908284
 -14256.03010068203 2539.6566881568115 -999895.15237832558
 -19969.626754110835 3632.1482093380314 -999793.98953318724
 0 0 0
 -0 -0 0
 42566.047753918006 7219.3922499083928 -999067.571265404
 36614.702268135741 5558.088750570284 -999314.00031584501
 30521.09647865739 3839.7036391731835 -999526.74768897693
 25729.412491224382 2416.537403671321 -999666.02306962141
 22208.93987198512 1306.768278633268 -999752.4970443577
 19670.921702637621 457.4623939551351 -999806.40404406621
 17842.222028046199 -191.37318397128413 -999840.79657183739
 16514.331963013239 -693.22639671810771 -999863.3888071801
 15538.56409011341 -1093.4051519218153 -999878.67138527939
 14811.445502655159 -1429.7017105507621 -999889.28238837549
 14261.420688092518 -1733.338912370981 -999896.79838279926
 13838.849030511647 -2029.7658727859935 -999902.17836947052
 13508.908330640696 -2339.2158317682756 -999906.01431584894
 13246.613576622032 -2676.9730454240139 -999908.6763520285
 13033.281381299552 -3053.3759905614957 -999910.40122177755
 12853.972146756794 -3473.6033100908267 -999911.35081070766
 12695.598455942865 -3937.3686632063773 -999911.65555155708
 12545.476026637465 -4438.6382226823889 -999911.45084051974
 12390.123602577964 -4965.5125056793249 -999910.91029284638
 12214.113604068931 -5500.3494247799727 -999910.27676740696
 11998.747993980722 -6020.1929926365692 -999909.88960151211
 11720.290891892377 -6497.4903327544043 -999910.20466879173
 11347.424628159431 -6901.0581817479442 -999911.80178567779
 10837.513945645993 -7197.178165765059 -999915.37087791995
 10131.176788748184 -7350.6727470209289 -999921.66036497138
 9144.6383032757658 -7325.741596010469 -999931.35219392483
 7759.5761009492981 -7086.3440104941765 -999944.78482929163
 5811.226695283166 -6596.0038247896364 -999961.36044241197
 3079.0460027315921 -5817.5301389021934 -999978.33767476981
 -704.95609236933126 -4715.3620083100113 -999988.63413442764
 -5780.8001500619175 -3270.5520561031908 -999977.94267617387
 -12046.125767279895 -1541.83868664336 -999926.25407450087
 -17869.243408912014 91.921266460996222 -999840.32809767849
 -0 0 -0
 47882.190988344075 6642.8300110310347 -998830.90090144891
 42113.29648393242 5452.0576255732585 -999097.96583063051
 35126.443793128099 3694.3025048239706 -999376.04787960148
 29138.423801938432 2212.5067555047353 -999572.93734484189
 24611.154232148936 1071.0295253095589 -999696.52594330721
 21328.857217296427 202.94920769419173 -999772.4934510967
 18974.009779791901 -461.34342335160466 -999819.87083430274
 17276.388319116661 -979.27894312160049 -999850.27250053734
 16035.483854952005 -1397.1799025508501 -999870.44718096231
 15110.355428195695 -1753.028957646027 -999884.29533036822
 14404.33068781691 -2078.6082317768482 -999894.0917143448
 13851.88461317033 -2400.8075543209611 -999901.1758247664
 13408.887027403936 -2742.2901941113719 -999906.3364101547
 13045.708653471875 -3121.6623692582621 -999910.02830743766
 12742.394017461342 -3553.2781858665485 -999912.4989762042
 12485.233973521981 -4046.7652640891506 -999913.86760236707
 12264.261646295296 -4606.4046187592003 -999914.18077891052
 12071.350888939711 -5230.4870706364145 -999913.45850164443
 11898.691632051667 -5910.81487164386 -999911.73780739203
 11737.46114917872 -6632.4767290418722 -999909.11699924537
 11576.514944114937 -7374.0253756579059 -999905.7995888954
 11400.901972506448 -8108.1040972536875 -999902.13425222842
 11189.967940596376 -8802.5315238108542 -999898.64489170152
 10914.754830861615 -9421.7515433915742 -999896.04395898909
 10534.332050545299 -9928.5060609688317 -999895.22081848467
 9990.6257008736284 -10285.494900486978 -999897.19271170942
 9201.2950696505977 -10456.756549264634 -999902.99150043074
 8050.4067851292966 -10408.464311170676 -999913.42366290756
 6377.5236756004615 -10108.930076236922 -999928.56581081892
 3968.5937447713977 -9527.9709421606385 -999946.73259799927
 560.0914514126946 -8637.1776001945509 -999962.54202878452
 -4108.9625379556437 -7417.8084544655658 -999964.04562593868
 -10096.584653335249 -5907.1991241548467 -999931.57964775048
 -16665.203331557488 -4439.0339814580648 -999851.27192759479
 -21531.593957354027 -4536.3963417642608 -999757.87647304195
 47186.387456631142 3949.2003711625598 -998878.2952168003
 40891.703618018852 3083.0439653766584 -999158.82792232954
 33834.677688684118 1870.256282774626 -999425.69344956276
 28050.756492758759 797.19131518792153 -999606.18222687638
 23742.66381901782 -50.1129787438447 -999718.10196848318
 20636.074070043138 -706.6579762354188 -999786.8038144334
 18407.738555015731 -1223.007003812276 -999829.81522615068
 16793.312776253733 -1643.7419959913243 -999857.63124469342
 15599.363956240968 -2005.8224773278773 -999876.31061064254
 14691.05587126781 -2340.4099171608432 -999889.34155675804
 13976.838215483882 -2674.5562748691664 -999898.74224454886
 13395.729598086124 -3032.1713929883845 -999905.67573405569
 12907.939821462644 -3434.3030949193098 -999910.79134681704
 12488.247527816831 -3898.8894122323595 -999914.41750533588
 12121.349918571435 -4440.1023822568368 -999916.67571202468
 11798.526980559907 -5067.4313725879365 -999917.55455156066
 11515.144305276019 -5784.6366495491193 -999916.96626793046
 11268.667978835629 -6588.7591009517591 -999914.79905814608
 11056.967128202803 -7469.3546022286009 -999910.97214689653
 10876.734088192356 -8408.1458939509721 -999905.4954035409
 10721.873989040552 -9379.2195916081437 -999898.53068099637
 10581.707671910979 -10349.860453323965 -999890.44792484294
 10438.804886852158 -11282.001393774704 -999881.86692083045
 10266.213564634394 -12134.19658995309 -999873.67508708918
 10023.785217461991 -12863.909983546453 -999867.01293214469
 9653.2229856136182 -13429.863621531544 -999863.21766984544
 9071.450508928061 -13794.137889475693 -999863.70598474587
 8162.0424622115288 -13923.76570651417 -999869.74642270035
 6765.1364351442953 -13791.713841031293 -999882.00381762092
 4668.4048346185364 -13377.689932386904 -999899.61666577961
 1607.8257582569686 -12670.794923899939 -999918.42959929863
 -2696.1748413120567 -11680.854117675191 -999928.14156233601
 -8396.8157824527334 -10478.813098148083 -999909.8399159644
 -15089.11914609266 -9308.870935898376 -999842.81934976846
 -20665.228048367771 -8697.9360219340724 -999748.61553225853
 46439.955577541958 1434.840546726809 -998920.05273623427
 39938.729091225709 951.54718892931453 -999201.6775789184
 32901.329799381558 243.81994204577748 -999458.5749540939
 27257.997742807482 -438.88829965267576 -999628.3354007696
 23093.151796408139 -1014.6958003225773 -999732.80266906356
 20096.997352654329 -1486.2714563807042 -999796.93022861681
 17942.116871734408 -1880.2810349021959 -999837.25925041968
 16367.834575357465 -2226.0961706748913 -999863.55993563076
 15185.257442462946 -2550.9252871029594 -999881.44334045239
 14263.448676621641 -2879.6766474345595 -999894.12514238502
 13514.171050118879 -3235.5962534152709 -999903.44438736327
 12879.560453937138 -3640.5732412133257 -999910.42756288371
 12323.124294411471 -4114.9227627526143 -999915.60044749849
 11823.404784016459 -4676.666455264226 -999919.16467791493
 11369.515460194401 -5340.4231351175295 -999921.10388717067
 10957.891982192576 -6116.0233267232297 -999921.25633070408
 10589.77073639594 -7007.0284418155788 -999919.37590396078
 10269.058287881946 -8009.3422911119233 -999915.19484301459
 10000.361834028146 -9110.1571679597309 -999908.49471317302
 9787.0253042731165 -10287.444031186467 -999899.18623379152
 9629.0569160347732 -11510.181093878189 -999887.39215678372
 9520.8518388264019 -12739.405284166787 -999873.52246835153
 9448.598747527758 -13930.081066594586 -999858.32837616862
 9387.2159962738588 -15033.633461072508 -999842.92268375715
 9296.5850606836284 -16000.904911076301 -999828.75761214027
 9116.757900337605 -16785.210069782843 -999817.5540808934
 8761.746526312425 -17345.176333104791 -999811.17049960094
 8111.5757126296767 -17647.121133349989 -999811.37293749698
 7002.7700309489383 -17666.945743419787 -999819.40381250472
 5219.1088897869377 -17392.018243797982 -999835.12571013614
 2489.3697010512192 -16824.714104238752 -999855.35555589339
 -1487.0962054016118 -15991.768360908154 -999871.01762655703
 -6923.4774048824493 -14966.997539474063 -999864.01797708345
 -13534.924941298883 -13911.024540827197 -999811.6268593088
 -19234.049961247434 -13100.56753854574 -999729.17655345832
 45911.461650131641 -533.37190800664757 -998945.37048006593
 39339.706045004066 -781.9246027410876 -999225.58820428955
 32312.98207892268 -1147.6728102206007 -999477.14032702509
 26733.815725717282 -1525.3779448227651 -999641.4238710145
 22636.143880837459 -1871.6746945785226 -999742.01763457141
 19688.155010729519 -2183.1943661349601 -999803.78585732169
 17557.380290921865 -2472.5385252436931 -999842.80011937919
 15983.692782329101 -2757.0904482356987 -999868.45135612739
 14779.816883429179 -3055.596707004921 -999886.10368464282
 13816.351997783246 -3387.5583623474863 -999898.81131333229
 13006.533813015572 -3773.1617605626102 -999908.29245911329
 12294.226270188927 -4232.9858545838115 -999915.46334236278
 11645.260305357098 -4787.2626642256719 -999920.73187258397
 11041.379884853088 -5454.6869016529254 -999924.16428499378
 10475.977945156317 -6250.8200423631433 -999925.58779885748
 9950.9387599668171 -7186.2228492602171 -999924.66567184753
 9474.0733854953269 -8264.4844418128632 -999920.96699209057
 9056.7826471943808 -9480.4057070363833 -999914.04460369085
 8711.7072845083803 -10818.608217985635 -999903.52728271496
 8450.223185595587 -12252.866882987732 -999889.2243550088
 8279.7205320690737 -13746.383721917204 -999871.23329080758
 8200.6532845622278 -15253.129473037776 -999850.03441865474
 8203.3551677922205 -16720.201172046091 -999826.55487677315
 8264.5689374023732 -18090.998997884199 -999802.18676273036
 8343.5354584768393 -19308.876436229326 -999778.75187804596
 8377.3502122565787 -20320.874814286108 -999758.41184268286
 8275.1786759669812 -21081.16690053988 -999743.52001900587
 7910.9314881960472 -21553.96210600941 -999736.38719440531
 7114.3950798301285 -21715.805536133328 -999738.87049197254
 5662.2482167686685 -21557.511807080187 -999751.57545753289
 3274.8176223392879 -21086.48935801995 -999772.29184254492
 -361.94531667898366 -20331.196774624616 -999793.2343406307
 -5485.654523913603 -19351.081176510448 -999797.7011634626
 -11846.80286697014 -18258.932286516887 -999763.10426699952
 -17390.486916876405 -17290.868748162597 -999699.25318704126
 45645.395627989259 -2209.2317957902801 -998955.26283855003
 39052.385561154981 -2296.4302580851522 -999234.52581966587
 32020.912974652398 -2405.6149035680151 -999484.30410347378