# OOMMF OVF 2.0
#
# Segment count: 1
#
# Begin: Segment
# Begin: Header
#
# Title: Oxs_TimeDriver::Magnetization
# Desc: Oxs vector field output
# Desc:  MIF source file: /mnt/gpfs/work/plgrid/groups/plggspinsym/MF/switching-obrazki/p-ap/Anisotropy.mif
# Desc:  Iteration: 44500, State id: 311650
# Desc:  Stage: 0, Stage iteration: 44500
# Desc:  Stage simulation time: 6.55111e-09 s
# Desc:  Total simulation time: 6.55111e-09 s
# meshunit: m
# meshtype: rectangular
# xbase: 1.0000000000000001e-09
# ybase: 1.0000000000000001e-09
# zbase: 3.4999999999999998e-10
# xnodes: 35
# ynodes: 35
# znodes: 5
# xstepsize: 2.0000000000000001e-09
# ystepsize: 2.0000000000000001e-09
# zstepsize: 6.9999999999999996e-10
# xmin: 0
# ymin: 0
# zmin: 0
# xmax: 7.0000000000000005e-08
# ymax: 7.0000000000000005e-08
# zmax: 3.4999999999999999e-09
# valuedim: 3
# valuelabels: Magnetization_x Magnetization_y Magnetization_z
# valueunits: A/m A/m A/m
#
# End: Header
#
# Begin: Data Text
 -0 0 -0
 0 0 -0
 -0 -0 0
 -0 0 0
 0 0 0
 -0 0 -0
 0 0 0
 0 -0 0
 -0 0 0
 0 0 0
 0 0 0
 -0 -0 0
 0 0 0
 19951.327520269002 34754.5780550977 -999196.7092792046
 17534.72334349867 34468.584148892754 -999251.94529910095
 15346.112990865213 34079.835449798324 -999301.28671576641
 13696.022151807689 33762.994572817362 -999336.01915206329
 12300.695875425021 33568.725263414635 -999360.71243829175
 10820.832295260661 33517.141811466987 -999379.56292553234
 8920.5553614029159 33621.478171123184 -999394.82683153439
 6354.1451481989379 33854.851239285344 -999406.56085849332
 3593.5617128738209 34047.26894066434 -999413.76305907348
 0 0 0
 -0 0 -0
 -0 0 -0
 -0 0 0
 0 -0 0
 -0 0 0
 -0 -0 0
 0 0 0
 0 -0 0
 0 -0 -0
 0 -0 0
 -0 -0 0
 0 0 -0
 -0 -0 -0
 -0 -0 -0
 -0 -0 -0
 -0 0 -0
 0 0 -0
 0 0 -0
 -0 -0 0
 0 0 0
 0 0 -0
 0 0 0
 24897.025559610516 33237.984764075132 -999137.31513096183
 22950.208579743299 32122.701845020802 -999220.40609283128
 21457.352767467364 30354.716541830239 -999308.84775222384
 19626.052839511111 29686.655216433872 -999366.55965266388
 17260.809060106854 28677.740076566595 -999439.66886185366
 15271.179885795931 28000.036579556614 -999491.26510262175
 13750.318408849877 27597.894736932045 -999524.529438745
 12453.157634882478 27406.709157041536 -999546.79288070486
 11094.308282948055 27423.421412779531 -999562.34036789322
 9402.473355050286 27704.408612120958 -999571.93800059229
 7204.8050222223819 28361.951251519637 -999571.75355539052
 4810.4447637526919 29439.515752410491 -999554.98824898992
 3389.4955089209516 30037.797666588158 -999543.01659885352
 1687.9906192427975 31336.941860601848 -999507.45207952044
 -732.3946708382482 32081.230730734602 -999484.99650212214
 -0 0 -0
 0 -0 0
 -0 0 -0
 0 -0 -0
 -0 0 0
 -0 0 0
 -0 0 -0
 -0 0 0
 -0 0 -0
 -0 0 0
 0 -0 -0
 -0 0 -0
 -0 0 0
 -0 0 0
 -0 -0 0
 0 0 -0
 0 -0 -0
 -0 -0 0
 29734.047072547841 31056.511391485772 -999075.26220244193
 27317.992665707279 29633.429443985508 -999187.46346023795
 24552.572849317447 28503.080971698782 -999292.12222532765
 21981.955441870425 26609.927132197437 -999404.17520289088
 20050.194809883895 24651.293189109536 -999495.02421582397
 18267.703767435956 23073.720364499779 -999566.85340581706
 16452.388238193253 21842.522322415956 -999626.04164750269
 14896.237711455111 21063.884447460146 -999667.15204313269
 13642.411063116197 20629.697703506943 -999694.10331013089
 12547.07508203836 20452.888404119793 -999712.08368350449
 11420.60153617379 20520.054191885247 -999724.21058835718
 10089.381612172443 20888.703717448938 -999730.89700963465
 8466.7249484098229 21669.788642420492 -999729.33078350802
 6688.7432025908856 22924.014282573917 -999714.83448208473
 5025.9665541053309 24399.331684326004 -999689.65798069304
 2959.1855857275268 26116.311352079098 -999654.53107662685
 150.15623818299028 27845.151750423312 -999612.23730859777
 -2646.5878313877079 28781.504056487927 -999582.22302975028
 -5459.531779926815 29732.9793543872 -999542.96728627721
 -0 0 -0
 -0 -0 -0
 0 0 -0
 -0 0 0
 -0 0 -0
 0 0 -0
 0 -0 -0
 -0 -0 -0
 -0 -0 0
 0 0 0
 0 0 0
 0 0 -0
 -0 0 0
 0 0 0
 -0 -0 -0
 32442.164881013861 27653.700235687193 -999090.97623845458
 29235.947562099271 26737.296912293539 -999214.87995524262
 25747.965231274771 24544.204230613723 -999367.11188888678
 22772.4679871728 22381.765338427082 -999490.10564492771
 20349.063139526759 20350.578125812106 -999585.79901841795
 18490.020965443749 18589.561920770218 -999656.21456193202
 16951.446843736554 17171.080978445523 -999708.85883237829
 15586.306657041498 16110.647000229847 -999748.72547957127
 14425.032516532998 15414.695301258882 -999777.12796686159
 13456.345871213629 15018.066330286167 -999796.67154851707
 12594.444561316734 14863.471275704 -999810.21058390301
 11724.281044361382 14939.563048884293 -999819.65908352751
 10740.495846950955 15282.92858749639 -999825.52170003706
 9583.6373200820344 15957.893736048387 -999826.73475118983
 8263.4896398120109 16999.095518394886 -999821.3567885661
 6768.1824534840462 18349.110459927877 -999808.73263420048
 4844.6112746924236 20007.40181149729 -999788.09435517422
 2282.331409031272 21962.359208676196 -999756.19314977399
 -862.29713244588515 24017.983835686384 -999711.15473226761
 -4632.9128513056094 26062.692518953059 -999649.57468963822
 -7925.4958389581298 26912.423340864221 -999606.37652309344
 -0 -0 -0
 0 -0 0
 -0 0 -0
 -0 -0 -0
 0 -0 -0
 0 -0 -0
 0 0 -0
 0 -0 -0
 -0 0 -0
 0 0 -0
 -0 0 0
 -0 0 0
 -0 0 -0
 34066.442573362408 25683.236899275158 -999089.50992029323
 31025.238641808191 24069.341956705637 -999228.75326172938
 27082.170279529058 21570.032537503172 -999400.46515362454
 23587.897387688605 19095.470932231165 -999539.38095840137
 20844.323301913377 16981.084090297725 -999638.5131482298
 18742.9788375553 15219.720400269545 -999708.48793797521
 17146.308457634226 13789.56154172077 -999757.89674238767
 15886.906971869026 12668.096395891896 -999793.54144771874
 14847.742745992236 11836.668033182341 -999819.702659045
 13984.031000000195 11274.964277150344 -999838.6480115382
 13257.314662250223 10944.53478775158 -999852.21946356934
 12607.819866778998 10813.145338052613 -999862.04986793303
 11963.226039682346 10873.529294732871 -999869.31525244843
 11254.762007033351 11145.536743755107 -999874.54580205132
 10429.540769732484 11664.199844079598 -999877.57806710026
 9446.2619763649509 12456.638312677425 -999877.79268099612
 8231.1804673029328 13531.081591704253 -999874.57088330504
 6624.5268503189709 14918.748506619289 -999866.76441764249
 4450.5933076368565 16665.52416446252 -999851.21519330749
 1571.0477654048286 18790.234134876468 -999822.21365104488
 -2109.2961180826924 21301.126212031024 -999770.88019805099
 -6144.2400349391 23827.897262592363 -999697.1939674716
 -9113.6309088619018 25329.189519580428 -999637.6212858028
 0 -0 -0
 -0 0 -0
 0 0 0
 0 0 -0
 0 -0 0
 -0 0 0
 -0 0 0
 0 -0 0
 -0 -0 -0
 -0 -0 -0
 0 0 0
 35275.399491837576 24698.791331111741 -999072.37770717754
 32316.459651923786 22654.538582922134 -999220.90566458856
 28321.141439178613 19715.201440035878 -999404.43454077223
 24547.632920638298 16951.503917097209 -999554.93107329635
 21479.318656898678 14666.180585170487 -999661.7137897592
 19138.694592709668 12855.183811752089 -999734.19198227534
 17385.27992626993 11428.712667619571 -999783.54485790874
 16069.596723340845 10312.432362734211 -999817.69428226922
 15059.826803290565 9454.8035960803645 -999841.89165368257
 14260.506011708725 8821.2703594128579 -999859.40169482632
 13613.443871736758 8385.2732889814088 -999872.1724989753
 13074.285421796454 8121.0814477300864 -999881.5485330394
 12596.805495951265 8010.052804477521 -999888.57356475818
 12131.226545033729 8047.8500833529952 -999894.02711064776
 11628.036081756172 8245.5903558143764 -999898.39434642822
 11039.699309421723 8624.8064550031595 -999901.86406105431
 10313.552208306519 9210.0574507864712 -999904.39817144501
 9372.2506742432815 10029.011314299605 -999905.78548649128
 8096.7134786661136 11126.957429731514 -999905.31254174304
 6340.2768628318154 12570.986198584846 -999900.88068532979
 3947.1210946383394 14445.025089102013 -999887.87445655093
 791.08414680424687 16837.837788883153 -999857.9206089573
 -3044.3633511866474 19708.378136955274 -999801.1360680667
 -7011.8743631877942 22635.844960620332 -999719.18664234574
 -9844.4037960483711 24453.905157324622 -999652.48673549388
 0 -0 0
 0 0 0
 0 -0 -0
 0 -0 0
 0 -0 -0
 -0 -0 0
 0 -0 -0
 0 -0 0
 0 0 -0
 36583.100462776405 24054.97988460178 -999041.05756634532
 33517.003434320693 21883.062897896751 -999198.54985833028
 29422.054555505056 18727.548082747369 -999391.62576466531
 25504.286460158673 15724.551601344332 -999551.03413937555
 22224.084546724156 13256.26859488423 -999665.12463374459
 19661.628342556087 11336.936553088439 -999742.41394496732
 17731.172968190323 9869.9813102204917 -999794.07328414801
 16296.422692576518 8748.5179196985573 -999828.93038841104
 15228.863041543271 7890.7104047762077 -999852.89839044295
 14423.636414758386 7240.6340262432705 -999869.75748417992
 13803.35804873334 6761.2087384662464 -999881.86970410333
 13314.263506936872 6426.7622160330729 -999890.70758492732
 12915.378740460783 6218.2751571141007 -999897.25774504477
 12569.538730140343 6123.915464474444 -999902.24739996239
 12239.610295446333 6141.1316370480408 -999906.2348250621
 11887.484221287856 6277.0896505213459 -999909.63884963538
 11472.223273131371 6547.0998878938708 -999912.75798252993
 10944.463735067504 6973.070029274455 -999915.79395863065
 10236.878060511544 7585.6175990054353 -999918.82907224819
 9256.2512562562406 8431.0246702688946 -999921.61674587789
 7884.4589276381839 9576.7635078939184 -999923.05749399145
 5985.2645278650343 11113.384263214173 -999920.33147583774
 3425.9991623129304 13145.655036104592 -999907.72288417269
 141.66442885792685 15739.436960882946 -999876.1173542171
 -3757.551488286394 18803.784067822104 -999816.13235211582
 -7778.8822748904304 21848.646750072814 -999731.02663953777
 -10717.746906492917 23673.527780333716 -999662.28996780806
 0 -0 0
 0 -0 0
 0 0 -0
 0 0 -0
 0 0 -0
 0 -0 0
 -0 0 -0
 38547.217396601409 23156.068810267738 -998988.44262996013
 35089.012164549276 21194.671978995426 -999159.42026536423
 30689.947111260946 18093.149128622383 -999365.1810529111
 26536.376401707021 15032.112385115035 -999534.81996612239
 23051.246775178028 12459.379914197501 -999656.6429901137
 20293.278649452357 10443.980764140004 -999739.51912858489
 18186.258633011141 8913.568228339911 -999794.88311271719
 16610.246227550175 7762.7961526638937 -999831.90523015056
 15442.857963075212 6896.3211020810622 -999856.96921769227
 14578.739462231204 6242.1032997112106 -999874.24034329841
 13934.716266928179 5750.1629487607679 -999886.3731987864
 13448.739453223941 5387.0764739813349 -999895.04989982944
 13075.528343913356 5130.5740691927776 -999901.34901811602
 12780.187686760657 4965.9716455467369 -999905.99854601675
 12532.541786682168 4885.1039998346168 -999909.53148536175
 12303.497456534664 4886.4949038402274 -999912.36921936914
 12062.695818477441 4975.4487556831527 -999914.86451560969
 11775.897176692732 5163.8148863244041 -999917.32821343979
 11400.904087145453 5470.2875922662461 -999920.04447338369
 10882.092873071284 5922.5122398749081 -999923.24900637777
 10145.458979826413 6561.2117379892361 -999927.00741735019
 9096.3702794950568 7444.4044989483436 -999930.91605840193
 7620.4120602271978 8649.690655414146 -999933.5538782553
 5590.616254668952 10269.825530840786 -999931.6355098777
 2888.0904695784411 12390.275103031736 -999919.06673305866
 -557.54659234540759 15036.724298684549 -999886.78662344697
 -4673.2877603342249 18062.411511794147 -999825.93968744774
 -9009.4974713898537 20922.974387889699 -999740.4953777137
 -12377.684768358873 22394.705258044905 -999672.58144663577
 0 0 0
 0 0 0
 -0 0 0
 0 -0 0
 -0 0 -0
 41709.209004847689 21099.275550531191 -998906.98388560303
 37601.32431333384 20012.404262370859 -999092.41018312378
 32559.888311541759 17371.558134206836 -999318.809310187
 27921.347375979185 14497.837734152245 -999504.98300996167
 24089.453518640559 11967.863989190113 -999638.16876943514
 21074.631567063985 9930.5912853016089 -999728.58479741239
 18765.85998528283 8361.8944674724808 -999788.93833645072
 17028.648558387231 7180.2160210732136 -999829.22023021791
 15736.638578151909 6296.8500011318329 -999856.34362458473
 14781.942989224217 5635.8926201841223 -999874.85760760936
 14077.970084198383 5139.741964192317 -999887.69059872406
 13558.174345373442 4767.6549924001647 -999896.71735349449
 13172.853711857188 4492.0018720845383 -999903.14423161373
 12884.995528337302 4294.5728813125816 -999907.7625131238
 12665.78993641548 4163.9598788610529 -999911.11565149331
 12490.650193443857 4094.2583234182789 -999913.60662135493
 12336.171053351087 4084.6579593505126 -999915.56366180151
 12177.710237426003 4139.3824979211095 -999917.28102173982
 11986.930721024562 4267.8548768546671 -999919.04617655894
 11728.746015805042 4485.3873382029224 -999921.15580045769
 11357.640002206777 4814.8376536100041 -999923.90778096195
 10813.893667837909 5289.2170302215754 -999927.5393181988
 10020.347868269926 5954.4850561449457 -999932.0660606476
 8879.9286593468441 6871.214248720009 -999936.96465414902
 7274.7746732311716 8112.553862847345 -999940.63029925746
 5068.8419979022037 9753.7992645869053 -999939.58329526416
 2118.233372806937 11846.8692612992 -999927.57976569666
 -1693.2299367992127 14364.488418838555 -999895.39175098017
 -6343.5632512280672 17079.972620120789 -999834.00309280027
 -11380.9073842545 19328.632669115319 -999748.4078038102
 -15406.277825944942 19793.807106141987 -999685.376407895
 0 0 0
 -0 -0 -0
 0 -0 -0
 0 0 -0
 40368.049318190628 18196.256458843716 -999019.17741609341
 35376.24119365216 16335.572481392464 -999240.5469308747
 30032.220309727247 13879.534726416292 -999452.56228549732
 25596.786870602253 11547.043014409352 -999605.65739671781
 22152.930425580573 9587.0115097528051 -999708.62599252979
 19544.115744563078 8036.204868866198 -999776.69854376407
 17590.989544116095 6849.1568509117778 -999821.80719230673
 16139.207910849471 5956.2988050541217 -999852.01328624412
 15065.506681124554 5289.2453435478983 -999872.51907037443
 14274.32675496288 4790.6854681671657 -999886.64003897854
 13693.06843998443 4416.7762465457072 -999896.49062504759
 13267.460889422231 4135.9663742033053 -999903.42946891591
 12957.268068034067 3926.5450723689796 -999908.3415233657
 12732.345022810641 3774.198675455968 -999911.81751921412
 12569.066742045205 3670.1556163115174 -999914.27058472659
 12447.282996920887 3610.085218881899 -999916.0126884192
 12347.827722519209 3593.5930778948223 -999917.30520044779
 12250.395900947366 3624.1145733963717 -999918.39346710127
 12131.433837786353 3709.1241198718185 -999919.53211811138
 11961.744474518418 3860.7670345284237 -999921.0024532096
 11703.657722995622 4097.0332294145273 -999923.11640176596
 11307.797100443258 4443.4308724802568 -999926.19209960534
 10709.423074233333 4934.7671313461578 -999930.47574857739
 9824.1692815907991 5616.3022689680975 -999935.96937341453
 8542.9878223438536 6542.9308426365515 -999942.10203144036
 6726.5562966112475 7774.1746377192076 -999947.15642832371
 4201.3841927693647 9361.3521203795644 -999947.35534294182
 768.16015072788218 11319.379538516754 -999935.63871723553
 -3740.2231641663025 13567.321031973961 -999900.9643613199
 -9213.9459549901421 15809.410564425461 -999832.56885217724
 -14297.026050741153 17353.945928033598 -999747.18584591721
 -0 0 -0
 -0 -0 -0
 0 0 -0
 44239.528294630079 16269.938143925359 -998888.45886268071
 39405.59182009667 15343.245334756006 -999105.49200567661
 33277.772177918989 13240.919985665907 -999358.42815118528
 27918.567537731404 11122.685714924281 -999548.31771612121
 23768.318387371506 9291.4126458775336 -999674.31531078182
 20670.862004387469 7807.2769759287812 -999755.8511407756
 18384.999447460126 6649.1145084022264 -999808.87227088131
 16702.843864649989 5766.3217409392219 -999843.87008193089
 15465.41984974198 5102.4124022885826 -999867.38429481164
 14555.384854170916 4605.8436517197051 -999883.45669683069
 13887.02371405962 4234.2081640811075 -999894.60547279101
 13397.945524016219 3954.9454015295846 -999902.4219705672
 13042.764930127954 3744.3313330705123 -999907.92889437836
 12788.27949089154 3585.8450005329669 -999911.79692175589
 12609.666887041181 3468.5470854211376 -999914.47908414342
 12487.414971193302 3385.8044504369768 -999916.29689467547
 12404.81657875406 3334.4510002866209 -999917.49757776211
 12345.909056848464 3314.3541594771377 -999918.293455053
 12293.665849622339 3328.2942862318841 -999918.89082921227
 12228.221687443809 3382.1304311606013 -999919.51265494851
 12124.892384998873 3485.263522182051 -999920.41679467331
 11951.805255996152 3651.4388374534574 -999921.9076235597
 11666.938691578782 3899.8287834400489 -999924.33407584741
 11214.30056141951 4256.2137474563688 -999928.05946600693
 10518.780205823619 4753.8743528408313 -999933.37575141422
 9479.1033217765234 5433.5769843796952 -999940.30963921547
 7958.4899933960905 6341.6606561829149 -999948.22154806938
 5774.1083602560648 7524.667561051645 -999955.01851370255
 2692.3360968686775 9017.6117166308359 -999955.71602209948
 -1542.6418405297184 10820.049327340303 -999940.27161061263
 -7048.31840529291 12842.834271679434 -999892.68564957904
 -13207.070708800746 14728.056613981398 -999804.30966848123
 -17764.901728057626 15206.085486235903 -999726.55422909395
 -0 -0 0
 0 0 -0
 43089.38122032625 13840.790359303497 -998975.34391409263
 37516.073589890839 12572.217779024675 -999216.9351860059
 31297.926424007339 10735.9107217785 -999452.44010034378
 26191.597799859934 9025.7572208487472 -999616.19430223352
 22355.020090951672 7615.1877243061581 -999721.09210152051
 19552.366559560793 6503.4270452723313 -999787.68265996722
 17518.131041991779 5648.1919525501407 -999830.59215672279
 16039.45643038044 5000.3039129765339 -999858.85643834539
 14960.697362701501 4513.9118089462072 -999877.89361231634
 14171.378309060212 4149.9825591096787 -999890.96889689949
 13593.674492498787 3877.2095169303593 -999900.08463853714
 13172.689278160231 3671.654519770972 -999906.49523356347
 12869.448622107044 3515.7791434858091 -999911.00433447422
 12655.880499111729 3397.2715145262709 -999914.1399315485
 12511.144189173419 3307.9499490560997 -999916.26086298446
 12418.852857082502 3242.8821694507355 -999917.62451161398
 12364.911675498277 3199.784574014559 -999918.43184228626
 12335.753936271427 3178.6795757172104 -999918.85929358227
 12316.798692352602 3181.7904011306305 -999919.0830661325
 12290.926498144658 3213.6419904348886 -999919.2995592067
 12236.782042973269 3281.3820260151142 -999919.74362807372
 12126.672303320096 3395.315007915126 -999920.70468354889
 11923.796980088218 3569.6359733715017 -999922.53738206904
 11578.411363188021 3823.2712033273765 -999925.65873049304
 11022.372489234609 4180.6889512046946 -999930.51215802075
 10161.35323641849 4672.4438570916782 -999937.45562850439
 8864.1599150354286 5335.1361800292161 -999946.48006327869
 6949.7915278348746 6210.1868871507531 -999956.56604501896
 4177.7307094056578 7339.8474552071702 -999964.3359667653
 263.06063899827012 8754.6715597066795 -999961.64252684289
 -5012.0875628863787 10429.202299658013 -999933.05311788502
 -11385.398616735316 12127.879815095081 -999861.63404219516
 -16936.723720230755 13120.902159800018 -999770.46831567178
 0 0 0
 -0 -0 0
 41555.737692240204 11952.986426362149 -999064.68598401826
 35718.899053784611 10448.316550716447 -999307.25651905546
 29646.338608351434 8826.9680366036428 -999521.4751281736
 24831.247959493754 7456.8793749428387 -999663.84553746937
 21279.501884044177 6379.2781905550955 -999753.21335284261
 18717.637006619712 5554.1107513661636 -999809.38279186492
 16877.016063140458 4930.3301399075362 -999845.41713882762
 15549.844025375538 4462.4482268610245 -999869.1358905969
 14587.287462388056 4113.0240115355264 -999885.14044262597
 13885.781463998946 3852.2128989864882 -999896.16737385024
 13373.904417668435 3656.8292762825199 -999903.87852046615
 13002.350042627661 3509.357359485195 -999909.30753958481
 12736.783072528217 3396.9752548424603 -999913.11368342454
 12552.839799654137 3310.6551570329102 -999915.72933692543
 12432.584811184486 3244.3848947218075 -999917.44899344945
 12361.939821652077 3194.5621550292053 -999918.4852859173
 12328.737708584775 3159.5643625423463 -999919.00640979514
 12321.173482516084 3139.4995442240865 -999919.16284598992
 12326.44903938097 3136.1114735275555 -999919.10845773155
 12329.441278216627 3152.8417591115272 -999919.01895433979
 12311.190153995085 3195.0363723615601 -999919.1098981814
 12246.98884312422 3270.3123717156295 -999919.65493296902
 12103.7653138774 3389.0700815768664 -999921.00341437419
 11836.347860803493 3565.149160164101 -999923.5923713292
 11382.030132142292 3816.598220751488 -999927.93888764409
 10652.742378783916 4166.5601758801149 -999934.57728799048
 9524.2265355459767 4644.2667857038887 -999943.85837152007
 7822.6209634649267 5286.0729466833054 -999955.4310238352
 5312.5395932227348 6135.8077004945562 -999967.06385107152
 1702.462865796638 7240.9612920502204 -999972.33466719347
 -3280.1592648219671 8631.6970825871977 -999957.36627151864
 -9564.2526984152591 10244.58728174353 -999901.78192747908
 -15491.626626735966 11688.873005446792 -999811.67214246909
 -0 0 -0
 46607.429781866704 11626.460596901816 -998845.6201551453
 41200.351388063122 10480.198286359582 -999095.93958206964
 34350.229618735371 8774.3903654962251 -999371.33829165518
 28360.759660185307 7347.8784621411105 -999570.74586724618
 23795.478644638697 6263.9219627530538 -999697.22340202448
 20478.290079093655 5455.8132464637465 -999775.41164866427
 18105.531017773457 4856.4023065663614 -999824.28711409122
 16411.086066039901 4412.6697199818727 -999855.5918731842
 15195.117517528894 4084.5855885024203 -999876.20461945119
 14316.351905739448 3842.0535112561065 -999890.13431122911
 13677.538765476695 3662.3770092218256 -999899.75093904347
 13212.426949148228 3528.4846654203043 -999906.48641264415
 12875.904445015367 3427.6813780863486 -999911.22710223275
 12636.995678118694 3350.7271498853379 -999914.53583183722
 12473.984029375028 3291.1165087315885 -999916.78067455243
 12371.011103168148 3244.519700438766 -999918.21224348072
 12315.650182762194 3208.35475119996 -999919.0123306819
 12297.117294143618 3181.4920846602718 -999919.32625305816
 12304.862066856425 3164.0696621544598 -999919.28625899029
 12327.354742442136 3157.4224168388801 -999919.03022631572
 12350.882750880835 3164.1090532447965 -999918.7187512659
 12358.180114649089 3188.0506627598284 -999918.55254176853
 12326.652079545378 3234.7759658798445 -999918.79163908132
 12225.904916698193 3311.7978453634378 -999919.77640408697
 12014.15868176117 3429.1297068024164 -999921.94748421409
 11633.003329239045 3599.9948844267883 -999925.8538863638
 10999.82921253781 3841.7988125785064 -999932.11986573285
 9997.3797617190758 4177.514248499685 -999941.29866337823
 8460.6538624070636 4637.6380731886147 -999953.4537413842
 6164.2511451468508 5262.7326586241161 -999967.1522869058
 2821.8911684710397 6105.679131477531 -999977.37855042354
 -1864.311413746917 7229.4857512243543 -999972.12905096775
 -7988.3700916491653 8679.9981348936726 -999930.41936709627
 -14751.859329755815 10305.905154145506 -999838.07237235631
 -19650.378455066086 11052.921865940745 -999745.81546751084
 46093.811300299196 9041.6219910558466 -998896.19562374102
 40068.417728708548 8257.9640479015634 -999162.81352465367
 33138.931753518147 7093.4197189225379 -999425.5823216287
 27365.931577094139 6077.1281508822231 -999607.00993058051
 23030.938749421402 5305.0385253370987 -999720.67720267002
 19901.481863893539 4739.4510685058049 -999790.71241094789
 17671.737204745656 4328.7183879824488 -999834.4722509241
 16083.994455194914 4030.8668606021229 -999862.51916686888
 14947.133201343046 3814.8378260674358 -999881.00803116662
 14126.87318078446 3658.0027292593068 -999893.51956604188
 13531.278913209624 3543.8025654340258 -999902.1681916439
 13098.133781216917 3460.0571042308434 -999908.22923720581
 12785.423152988487 3397.8313450924875 -999912.49001947639
 12564.55951049445 3350.657827013054 -999915.44889377186
 12415.673237570179 3313.9905710256844 -999917.43085344438
 12324.337462745429 3284.8021969070969 -999918.65708198061
 12279.262184739824 3261.2962729228598 -999919.2885762424
 12270.607657946402 3242.7017293420358 -999919.45529287471
 12288.68086090143 3229.1501101776316 -999919.27719804691
 12322.812947922528 3221.6164317882572 -999918.88144419855
 12360.255448974696 3221.934805654595 -999918.41828288371
 12384.902535931016 3232.8796355863506 -999918.07798361045
 12375.628021222165 3258.3348737533279 -999918.11018949479
 12303.934739254839 3303.5564208129372 -999918.84655951278
 12130.531306471479 3375.5709422263626 -999920.72472323349
 11800.306298494797 3483.7517067437011 -999924.30525780679
 11235.091709505308 3640.6680488007473 -999930.25669315422
 10323.665160176619 3863.3099949100388 -999939.2465412803
 8909.1214951380553 4174.7773949611774 -999951.5982225776
 6776.0736135087845 4606.2037299324729 -999966.43329342944
 3647.1652952194308 5197.4672512708885 -999979.84205656918
 -781.87750856848322 5990.505610492055 -999981.75108853483
 -6686.642111674063 6991.4662019637708 -999953.20301382977
 -13637.596578499786 8030.8582376484874 -999874.75279433315
 -19443.535152586508 8549.7292359948242 -999774.40008772037
 45571.777116034755 6520.2635462923063 -998939.78762174316
 39259.962692802364 6159.1446853300886 -999210.048121067
 32319.439119177194 5551.9186464610693 -999462.1703968416
 26693.097996630484 4966.478099877314 -999631.33835160721
 22517.558253308947 4500.7364149871091 -999736.31670657627
 19518.486366758254 4156.8167459046572 -999800.85495287098
 17386.911395002611 3910.3442543278311 -999841.18964961369
 15871.111372154755 3736.0377526465322 -999867.06608714897
 14786.555873305217 3613.7158339223683 -999884.14270018169
 14004.275670856969 3528.3799455874637 -999895.70996074099
 13436.290766042754 3469.0680888157931 -999903.71119275561
 13023.292260362516 3427.774238747837 -999909.31799962197
 12725.414453198175 3398.6529177384054 -999913.2527301251
 12515.677336362742 3377.4785912128427 -999915.97169921151
 12375.420444164198 3361.2709626861792 -999917.77203245368
 12291.140334340304 3348.0390227088064 -999918.85595981451
 12252.266445951938 3336.5955989091849 -999919.37129787961
 12249.55421699299 3326.4347583289332 -999919.43838155456
 12273.84472785975 3317.6486183631441 -999919.16970485239
 12315.011730941622 3310.8917222058421 -999918.68593504664
 12360.917227272073 3307.3797179425123 -999918.13113109511
 12396.207156786875 3308.939420211309 -999917.68909647746
 12400.721525239545 3318.1065138878666 -999917.60274275392
 12347.245792807442 3338.299832417028 -999918.19729193905
 12198.212760296878 3374.0858711824853 -999919.90636749915
 11900.863781233165 3431.5853359185508 -999923.29388975783
 11380.254289497974 3519.0586749385143 -999929.0505022587
 10529.536288526519 3647.7095763935336 -999937.90961258928
 9197.4202970986917 3832.5853915452831 -999950.35814239038
 7174.5558261163069 4092.9871870632956 -999965.88602041057
 4186.0250710798073 4450.3329244039469 -999981.33569130488
 -87.355179067787873 4917.6849069849186 -999987.90429896105
 -5891.7878363608679 5468.0785061186434 -999967.69295489846
 -12978.655948132026 5971.8592543366976 -999897.94048534113
 -19211.893560679022 6188.9797582915426 -999796.27908657712
 45286.44826244576 4563.0672616183638 -998963.62096972216
 38857.293984569449 4462.1293094841676 -999234.80729317165
 31895.711206298132 4239.6974448328683 -999482.21023298881
 26330.311120791808 4000.7124403889829 -999645.29159910092
 22235.880065426198 3801.9929612374663 -999745.52286431321
 19308.414914295652 3655.8500967191994 -999806.89129129716
 17232.071166029771 3555.6497134912729 -999845.19455685921
 15756.637531221633 3490.4819498404413 -999869.76397402247
 14700.945976528928 3450.4576395214049 -999885.98176465766
 13939.132225383353 3427.8420960494554 -999896.96993808716
 13385.626325810532 3416.8608959336561 -999904.57048134517
 12982.88737345982 3413.246159399569 -999909.89313342783
 12692.331949703079 3413.8490211918374 -999913.62144164194
 12487.907428088758 3416.3584685916326 -999916.18681911635
 12351.630688739791 3419.1170670270735 -999917.87005624152
 12270.494795959028 3420.9923415818348 -999918.86259279109
 12234.306541921989 3421.2942957506625 -999919.30498854781
 12234.12248293027 3419.7131194285871 -999919.31264940242
 12261.055703357682 3416.2830607038709 -999918.9944805972
 12305.257923470914 3411.356848466482 -999918.4683122366
 12354.919659069908 3405.6043351780322 -999917.87553745136
 12395.103536448081 3400.0256476280883 -999917.39720534731
 12406.208578809934 3395.99831451309 -999917.27317020914
 12361.778990177507 3395.356062872208 -999917.82561238727
 12225.294088882358 3400.5278370099377 -999919.48605618742
 11945.435323912947 3414.7454483945971 -999922.82006585144
 11449.223701893912 3442.3492056830742 -999928.53020031913
 10632.370731623898 3489.1601813585576 -999937.38726674975
 9346.5194546559978 3562.7747213131147 -999949.97335385159
 7384.4259953366718 3672.2314245226294 -999965.99190626689
 4468.7242758655202 3825.6294771899325 -999982.6973815345
 264.26520816222467 4022.74333981155 -999991.87381694338
 -5518.7230733910583 4239.2882730745505 -999975.78577212419
 -12696.198993852879 4409.0747465353415 -999909.67921657197
 -19102.874859996551 4448.0421305932932 -999807.62904335128
 45270.753899275951 2962.5630512323846 -998970.36095249536
 38792.601347674514 3032.3385509234904 -999242.68273707805
 31803.048249815994 3086.0246541226493 -999489.39092611393
 26240.896702460461 3124.953858826786 -999650.76401893049
 22164.299615671527 3158.4277358897584 -999749.35266634903
 19256.248028919294 3191.910825657118 -999809.4861608037
 17195.68198664505 3226.9632911951721 -999846.93590015639