# OOMMF OVF 2.0
#
# Segment count: 1
#
# Begin: Segment
# Begin: Header
#
# Title: Oxs_TimeDriver::Magnetization
# Desc: Oxs vector field output
# Desc:  MIF source file: /mnt/gpfs/work/plgrid/groups/plggspinsym/MF/switching-obrazki/p-ap/Anisotropy.mif
# Desc:  Iteration: 15000, State id: 105150
# Desc:  Stage: 0, Stage iteration: 15000
# Desc:  Stage simulation time: 2.20742e-09 s
# Desc:  Total simulation time: 2.20742e-09 s
# meshunit: m
# meshtype: rectangular
# xbase: 1.0000000000000001e-09
# ybase: 1.0000000000000001e-09
# zbase: 3.4999999999999998e-10
# xnodes: 35
# ynodes: 35
# znodes: 5
# xstepsize: 2.0000000000000001e-09
# ystepsize: 2.0000000000000001e-09
# zstepsize: 6.9999999999999996e-10
# xmin: 0
# ymin: 0
# zmin: 0
# xmax: 7.0000000000000005e-08
# ymax: 7.0000000000000005e-08
# zmax: 3.4999999999999999e-09
# valuedim: 3
# valuelabels: Magnetization_x Magnetization_y Magnetization_z
# valueunits: A/m A/m A/m
#
# End: Header
#
# Begin: Data Text
 -0 0 -0
 0 0 -0
 -0 -0 0
 -0 0 0
 0 0 0
 -0 0 -0
 0 0 0
 0 -0 0
 -0 0 0
 0 0 0
 0 0 0
 -0 -0 0
 0 0 0
 -8123.5096761824634 -27009.256546628869 -999602.17519338126
 -5763.3081939089034 -27265.878828316763 -999611.60263893579
 -3227.9220713135342 -27604.848896446063 -999613.7018051052
 -1240.2484182191629 -28078.380450711444 -999604.95513734128
 303.55413381822819 -28677.126255377909 -999588.68055046571
 1682.7254258746023 -29367.277526755592 -999567.27209618455
 3219.7432491467516 -30107.276790294254 -999541.48745196254
 5242.2393598877397 -30830.191659370292 -999510.88948982453
 7672.7359614648894 -31367.465219381509 -999478.46962732356
 0 0 0
 -0 0 -0
 -0 0 -0
 -0 0 0
 0 -0 0
 -0 0 0
 -0 -0 0
 0 0 0
 0 -0 0
 0 -0 -0
 0 -0 0
 -0 -0 0
 0 0 -0
 -0 -0 -0
 -0 -0 -0
 -0 -0 -0
 -0 0 -0
 0 0 -0
 0 0 -0
 -0 -0 0
 0 0 0
 0 0 -0
 0 0 0
 -12646.031086317038 -22198.258168885066 -999673.60434895509
 -10564.521099204543 -22581.035406875049 -999689.19556725118
 -8905.033339814614 -22701.83778165653 -999702.6192536219
 -7606.5374166762158 -23052.316384514095 -999705.32223142474
 -5389.6165779081748 -22586.214504452615 -999730.3711238855
 -3146.1170600506148 -22446.954873016657 -999743.0850795483
 -1342.3542720880682 -22655.876368131147 -999742.42150215886
 95.099781906491401 -23091.180465396072 -999733.3586215605
 1401.6156923156209 -23669.942427239086 -999718.84512543946
 2866.0093496345407 -24357.389639269219 -999699.20654183195
 4800.7212158608745 -25175.083104057827 -999671.53018704674
 7333.9514572400894 -26192.961833196889 -999630.00250414014
 9732.0078313095073 -26948.513223299575 -999589.44855306717
 11610.533251951469 -29074.790157322215 -999509.80590232974
 13776.810508897646 -30582.602994504337 -999437.29362390831
 -0 0 -0
 0 -0 0
 -0 0 -0
 0 -0 -0
 -0 0 0
 -0 0 0
 -0 0 -0
 -0 0 0
 -0 0 -0
 -0 0 0
 0 -0 -0
 -0 0 -0
 -0 0 0
 -0 0 0
 -0 -0 0
 0 0 -0
 0 -0 -0
 -0 -0 0
 -17394.100335771618 -17197.778730535952 -999700.79607862898
 -15345.062683132426 -17897.303699093285 -999722.06916300149
 -12845.9766007243 -18565.591828857152 -999745.1173600289
 -10202.305500875153 -18159.929533566203 -999783.04142538982
 -8094.0676405817921 -17648.186031323468 -999811.49603254383
 -6413.2855725906311 -17077.247577960734 -999833.60484798951
 -4597.8357920347034 -16434.778216348699 -999854.36838122027
 -2850.6642270242719 -16132.735889378431 -999865.79526763887
 -1376.4709204163078 -16191.246706232516 -999867.96571242507
 -141.61276743574737 -16505.984856746705 -999863.75692377845
 1014.4709183795082 -16997.368139860471 -999855.0196528862
 2302.3348983391893 -17646.32155317899 -999841.64075600391
 3929.0268161233439 -18515.087521857691 -999820.86109579448
 5957.7178517181537 -19746.755964344651 -999787.2629849232
 8103.2564819308227 -21374.581714635315 -999738.6981061165
 10316.151145722219 -23484.148255148415 -999670.98177663865
 13141.933191923064 -25509.688866271412 -999588.18788835488
 16342.236394180751 -26805.855910168237 -999507.06720791128
 19211.771904288005 -28672.004111112532 -999404.23453202879
 -0 0 -0
 -0 -0 -0
 0 0 -0
 -0 0 0
 -0 0 -0
 0 0 -0
 0 -0 -0
 -0 -0 -0
 -0 -0 0
 0 0 0
 0 0 0
 0 0 -0
 -0 0 0
 0 0 0
 -0 -0 -0
 -20058.917833214626 -13318.383784735524 -999710.08820993826
 -17906.945616110392 -14090.778930003242 -999740.36191795685
 -14828.150508464385 -13789.400686071376 -999794.96817158326
 -11862.763569205919 -13223.428933021249 -999842.19543273665
 -9229.3892309591065 -12444.23347224341 -999879.97251055681
 -7110.1923401242921 -11755.864669442843 -999905.61795139441
 -5419.0168601022551 -11167.502088065477 -999922.95760892658
 -3910.8790721469081 -10702.570381377263 -999935.07789861795
 -2560.8270843843275 -10494.44578503208 -999941.65268394968
 -1400.6498286817621 -10559.281872977441 -999943.2682639471
 -388.39802527939099 -10842.760205184641 -999941.14011681057
 585.48614841614756 -11296.13291037871 -999936.0252472359
 1661.6729251064999 -11913.131623560263 -999927.65545213793
 2968.7792529046051 -12745.064243676827 -999914.3711774383
 4557.6859356694613 -13884.493733601317 -999893.21846518863
 6377.9460709185578 -15378.646085698834 -999861.39991925249
 8497.8523033244164 -17214.580854573374 -999815.70537386148
 11178.885093924257 -19281.931827305543 -999751.58896251023
 14457.392594774876 -21500.12542084726 -999664.30785851716
 18280.402170156001 -23844.765768439054 -999548.5251061829
 21976.169867421566 -24924.458975056459 -999447.75716530543
 -0 -0 -0
 0 -0 0
 -0 0 -0
 -0 -0 -0
 0 -0 -0
 0 -0 -0
 0 0 -0
 0 -0 -0
 -0 0 -0
 0 0 -0
 -0 0 0
 -0 0 0
 -0 0 -0
 -21165.46610610788 -9526.3853190689642 -999730.59922524332
 -19833.281385761205 -10232.235443488113 -999750.9401382436
 -16937.705628836506 -9674.9673660193257 -999809.73646714271
 -13641.298796184201 -8740.5536923509753 -999868.75023090153
 -10682.312042169582 -7871.7580227702629 -999911.95794183027
 -8227.378481510028 -7128.7564700325502 -999940.74378160678
 -6279.6693073840752 -6565.3799080730132 -999958.72991841636
 -4741.9326951041821 -6168.2234682746002 -999969.73308873712
 -3473.9246534923391 -5933.7576189544907 -999976.36090460722
 -2400.8364785564754 -5891.4682035899505 -999979.7630885382
 -1483.0190837148391 -6041.0882942595445 -999980.65276615124
 -664.6577531783355 -6355.108404569155 -999979.5852052368
 137.16849517337727 -6808.7124716134522 -999976.81104077736
 1019.2479190874305 -7402.0185697407242 -999972.08523776929
 2069.3169478344016 -8167.8013432058287 -999964.50184423418
 3342.618485772241 -9158.3138141425152 -999952.47496555571
 4872.1221910138102 -10410.231659348348 -999933.9425692854
 6745.8946663154411 -11936.871135902375 -999905.99758809118
 9125.1931363580534 -13745.214039266026 -999863.89070774976
 12147.446001522449 -15866.320397700303 -999800.32978224091
 15938.303992500989 -18323.416230921666 -999705.0679492784
 20331.654806890827 -20831.129521379822 -999576.25414756453
 24078.304376393746 -22575.066634359388 -999455.15238294308
 0 -0 -0
 -0 0 -0
 0 0 0
 0 0 -0
 0 -0 0
 -0 0 0
 -0 0 0
 0 -0 0
 -0 -0 -0
 -0 -0 -0
 0 0 0
 -21149.074458715782 -5604.9958575255077 -999760.62168449955
 -20663.625818670316 -6537.2000130231017 -999765.11220586998
 -18450.659565400525 -6054.6531861367948 -999811.43939064711
 -15387.859148185575 -5009.6641854175932 -999869.04995383532
 -12303.326603106234 -3989.9041665815384 -999916.35091103439
 -9614.7933068197399 -3199.5116796280804 -999948.6581193452
 -7423.9105063884163 -2644.8298804255651 -999968.94473163353
 -5698.0629751633842 -2299.7740198591773 -999981.1213806934
 -4348.6700042430166 -2129.1522320359609 -999988.27782127867
 -3273.9741798180057 -2110.1008200165634 -999992.41425502778
 -2395.255999310823 -2235.1487746482535 -999994.63341492636
 -1652.1947950693025 -2493.3040037531518 -999995.52683374751
 -984.42314056108546 -2867.45870539099 -999995.40428526641
 -323.62875513199515 -3344.8449356833148 -999994.35362245166
 402.68447007384702 -3927.4193673605564 -999992.20658079663
 1261.9466608848447 -4635.1882133422405 -999988.46119385387
 2310.409310352868 -5499.4948727675192 -999982.20862421521
 3603.661631518396 -6550.5743983501852 -999972.05140838691
 5225.7595465493723 -7817.0493718368834 -999955.79161094932
 7298.9701305378803 -9338.830531585385 -999929.75317235931
 9964.5555605908794 -11181.452724001696 -999887.83508324623
 13371.094868277451 -13431.227325888714 -999820.3918477277
 17559.326343844885 -16124.779620708219 -999715.79038271355
 22163.382044482219 -19073.999652963608 -999572.39209253329
 25955.362456579085 -21297.706644502123 -999436.20449302939
 0 -0 0
 0 0 0
 0 -0 -0
 0 -0 0
 0 -0 -0
 -0 -0 0
 0 -0 -0
 0 -0 0
 0 0 -0
 -20059.511416129011 -1415.4205235484749 -999797.78584796225
 -20542.018788495665 -2731.3361944019834 -999785.25957661856
 -19205.798348028864 -2580.7750120506257 -999812.2208245669
 -16711.30816742788 -1684.5155401698278 -999858.9373440278
 -13848.301262553685 -667.76346142968589 -999903.88470297551
 -11123.959053306444 163.85854139306537 -999938.11342770548
 -8778.3665626634156 727.50150010594518 -999961.20475849404
 -6869.8196561560098 1044.6103353302565 -999975.85689212498
 -5364.8032403384659 1160.6952157637547 -999984.93572293816
 -4191.6416410454212 1118.8589177307772 -999990.58910325496
 -3270.5369481849202 950.29709998732505 -999994.20024492755
 -2530.485413375623 674.94251974369661 -999996.57054220315
 -1910.1386691246598 308.36136553756302 -999998.12814001436
 -1351.5234671611745 -136.0650320992803 -999999.07743488683
 -796.02927824429742 -650.41543378807046 -999999.47164843627
 -184.96737670123767 -1236.3990058674483 -999999.2185519787
 537.71912444365023 -1906.7038108671281 -999998.03766743501
 1425.2422687565434 -2682.3832565733392 -999995.38674162887
 2535.0839453656631 -3589.2455763822422 -999990.34528618457
 3941.8997127055131 -4659.6741160749925 -999981.37425843452
 5744.6368849530836 -5940.7339621834553 -999965.8528305107
 8064.4778561587418 -7503.6986147457119 -999939.32751142792
 11036.396047114036 -9447.554302226903 -999894.46527120948
 14765.04852580126 -11879.967566029409 -999820.41373071633
 19222.187391275402 -14844.004526405706 -999705.03801947227
 24037.899291251517 -18074.68593126503 -999547.64024840237
 28013.990067169299 -20510.558467116665 -999397.08492264652
 0 -0 0
 0 -0 0
 0 0 -0
 0 0 -0
 0 0 -0
 0 -0 0
 -0 0 -0
 -17729.257077855415 3015.096810035328 -999838.27824038302
 -19396.616261509378 1252.546197138241 -999811.08335806523
 -19174.035799984722 925.39155652613476 -999815.73302364454
 -17485.444512119098 1498.1924995541608 -999845.99546602555
 -15097.589787714081 2357.6566832942126 -999883.24530295329
 -12567.775783904282 3142.3975457759452 -999916.08465386217
 -10220.597521460642 3700.6684771697405 -999940.92047436791
 -8205.5772243728243 4005.9849767164096 -999958.30942433875
 -6557.9601219212354 4089.5197221412336 -999970.13404775341
 -5250.4045196147017 3997.2623834870446 -999978.2273358847
 -4227.4062399162694 3771.451033880353 -999983.95246802922
 -3425.6503949201433 3444.5653644616523 -999988.19987478922
 -2784.4426776455925 3039.7622347377437 -999991.50332616887
 -2248.0294459852976 2573.8572084851198 -999994.16079429188
 -1763.8966413967644 2058.8030906882309 -999996.32499248313
 -1281.0570165126628 1500.9131979034212 -999998.05307435093
 -749.74753805725743 899.37082401711791 -999999.31450514006
 -121.62834885300045 245.65213052220048 -999999.96243078716
 651.63545338007066 -475.78832587923301 -999999.67449829937
 1623.0768646858962 -1287.0421456507111 -999997.85456970194
 2857.3723818246826 -2218.8947242934973 -999993.45594322495
 4436.1897065876101 -3315.9827165007946 -999984.66212213028
 6460.1168698040974 -4643.0407114878126 -999968.3540307564
 9046.0556339175328 -6288.7124966755982 -999939.30864458065
 12312.626169918054 -8359.626573518859 -999889.25180759432
 16347.076750407183 -10950.437839418319 -999806.4117582168
 21130.95669820864 -14053.67163724141 -999677.93662885798
 26324.106249559773 -17335.258447928882 -999503.14168826176
 30740.324709634206 -19676.664156581879 -999333.7086901532
 0 0 0
 0 0 0
 -0 0 0
 0 -0 0
 -0 0 -0
 -13837.307246170642 7254.1902260351153 -999877.94537750445
 -17062.011882041385 5247.8645980723313 -999840.66113941255
 -18241.185443921859 4417.7399218026712 -999823.855850411
 -17605.192858683542 4581.8726741474466 -999834.51812147722
 -15915.638958332871 5194.5733568331607 -999859.84460032615
 -13784.132117331494 5863.4785818601076 -999887.80236619152
 -11605.872043848543 6384.1740301857153 -999912.26917967864
 -9603.7120103483849 6681.9116228643834 -999931.5580441925
 -7879.6591490643032 6755.9456339021435 -999946.13263429655
 -6457.91584447272 6639.2619281659563 -999957.10684208595
 -5318.0750360166267 6373.6373958520153 -999965.5468186182
 -4417.8730226845937 5997.5048389989206 -999972.25578195998
 -3707.1742718703363 5541.688598557399 -999977.77302617813
 -3135.3710360474884 5029.2836461110719 -999982.43772301998
 -2654.0239771574588 4477.0321573963693 -999986.45607817639
 -2216.9729368035159 3896.2893088447508 -999989.95192982792
 -1779.8137203514682 3293.0330652597413 -999992.99407363439
 -1299.5295122847378 2667.4131514444962 -999995.59805537458
 -733.92846926058417 2013.4576620945256 -999997.70366598584
 -40.004994109137584 1319.0330428377133 -999999.12927533709
 829.37345761978156 565.38350672780666 -999999.49624045228
 1929.9309120013504 -274.64761737110399 -999998.0999658755
 3330.219032513764 -1239.8551971157829 -999993.68618021079
 5114.7140084922485 -2384.4512840261355 -999984.07691957045
 7385.1626212539641 -3780.5151095130145 -999965.58294701553
 10258.638715095231 -5515.5295464588507 -999932.16733213246
 13860.708391738741 -7678.5455645037919 -999874.45246935508
 18304.696742471286 -10321.164320312493 -999779.18144170183
 23617.335252134584 -13360.680348950298 -999631.78905845212
 29491.627593990834 -16335.181721998382 -999431.54129733529
 34623.975947255312 -17960.684198081373 -999239.00750157889
 0 0 0
 -0 -0 -0
 0 -0 -0
 0 0 -0
 -13998.693765269125 8171.1424405016414 -999868.62587246089
 -16337.006653651297 7457.1688014368719 -999838.73342007783
 -16927.498156305606 7363.2641322531199 -999829.60655678075
 -16147.539399255049 7752.5888018310479 -999839.56429930252
 -14613.355556079856 8301.5247260308643 -999858.7572885555
 -12778.348898773294 8784.9632107065299 -999879.7618818013
 -10930.231291569598 9091.0203805781621 -999898.93658926978
 -9231.4250164214609 9186.7277126851295 -999915.18881658115
 -7757.5666204537283 9084.1802960329187 -999928.64636856876
 -6528.0650897454425 8815.9169971308947 -999939.83017663809
 -5528.8829037823753 8419.5519879576823 -999949.27001231338
 -4728.286754903701 7929.8032469368245 -999957.37985417573
 -4086.8288820064963 7375.3819988683372 -999964.45015313406
 -3562.9546322340902 6778.5529410665449 -999970.67785726266
 -3115.5753428353933 6155.7451167069521 -999976.19971294387
 -2704.8969346899876 5518.1474753310476 -999981.11661221564
 -2292.5094493418192 4871.9147887087765 -999985.50431829586
 -1841.1507774697168 4218.0841162961369 -999989.40890901559
 -1314.0306158132066 3552.4252777034949 -999992.82677336596
 -673.33040497127138 2865.2213677212335 -999995.66855695914
 122.32573607088031 2140.708020113741 -999997.70120015123
 1121.2088876960884 1355.8280207210296 -999998.45230930659
 2382.0979638126269 478.31265249871575 -999997.0484087927
 3977.8459241881783 -535.4252081786708 -999991.94499838352
 5998.8671621543999 -1741.5382362252162 -999980.49012835382
 8556.6698137838812 -3207.3199477296562 -999958.24737858458
 11787.216936468116 -5003.953221215801 -999918.00762315118
 15849.110279796474 -7187.0328931074455 -999848.56466443557
 20890.077203086432 -9749.0878303629743 -999734.24466751388
 26862.933742342822 -12499.693725872985 -999560.9738517775
 32598.47323538001 -14755.967512609737 -999359.59542373382
 -0 0 -0
 -0 -0 -0
 0 0 -0
 -6158.7977794318431 10820.877209888693 -999922.48590894323
 -11854.423087006719 9645.150909859527 -999883.21503923635
 -14803.41897351592 9429.2493593421314 -999845.96215777844
 -15452.903974294275 9752.1390603203836 -999833.03783307213
 -14813.761540332274 10273.859059312997 -999837.48693928041
 -13536.296902090051 10780.865026458912 -999850.25959663559
 -12010.790530955059 11148.118133413798 -999865.72117105057
 -10468.764870974994 11320.335066757742 -999881.12042184919
 -9039.3126850973404 11289.871531706376 -999895.40934388665
 -7784.08760373115 11076.4961030661 -999908.35540776257
 -6721.3137260146723 10712.323460732599 -999920.03183648095
 -5842.7054372114844 10232.128459004956 -999930.58076067071
 -5125.0654529728599 9668.0441124359004 -999940.12952133408
 -4537.7772794662178 9047.2580897243843 -999948.77653728856
 -4047.2669376888734 8391.4465816747088 -999956.60068555071
 -3619.373971824366 7716.9669233657251 -999963.67361697473
 -3220.4508623920087 7035.1910661732063 -999970.06694345898
 -2817.7440635613725 6352.704173945137 -999975.85144245892
 -2379.2984330808754 5671.3587329027669 -999981.08713569643
 -1873.32512913138 4988.2304576675951 -999985.80400416791
 -1266.8761421725105 4295.4693481301983 -999989.97193367872
 -523.73082086224724 3579.919011182983 -999993.45492153126
 398.39550757681673 2822.3995456951966 -999995.93766266073
 1551.1454257923469 1996.6840733827121 -999996.80359518097
 2999.2753796458974 1068.458337309333 -999994.93135914358
 4825.1769271385465 -5.2065155469048232 -999988.3587524977
 7134.7980350668577 -1274.9900620793558 -999973.73418372369
 10065.57767466609 -2795.7076484769209 -999945.43259360886
 13794.640172564319 -4617.4071818741868 -999894.18812863727
 18534.667136108677 -6765.5975895099855 -999805.32745300501
 24459.086210282989 -9194.9869706212903 -999658.54436220787
 31300.889704597637 -11641.159411022571 -999442.21329262829
 37202.387792470763 -12983.44343889005 -999223.40471938869
 -0 -0 0
 0 0 -0
 -5943.0345470988586 10912.89346179464 -999922.79156776052
 -10531.911231826678 10638.031833697863 -999887.9492845739
 -13197.289831126884 10913.641313802062 -999853.35123426327
 -13955.126427974748 11513.447585084265 -999836.33409227757
 -13570.025943828059 12151.806132368882 -999834.08023711876
 -12601.353777418681 12674.137238379981 -999840.27330781135
 -11390.681850486222 13008.525571033459 -999850.50414021825
 -10138.42214053247 13132.537014462194 -999862.36496233055
 -8956.4006593796785 13054.007887406851 -999874.68003010459
 -7899.9071756789426 12797.631079060042 -999886.89965684607
 -6988.2222044247965 12395.44087992723 -999898.75377250765
 -6218.3517580854304 11880.591443378078 -999910.08778208052
 -5574.2361964190159 11283.757076989805 -999920.79922214535
 -5032.7492366545166 10631.381889844801 -999930.82018419332
 -4567.4100240692896 9945.0504175193018 -999940.11557586025
 -4150.5452835208271 9241.4205026203999 -999948.68324376701
 -3754.4424312086421 8532.3443388441901 -999956.55068713566
 -3351.8472757399609 7825.0074902181304 -999963.76653237711
 -2915.9275400534175 7122.0303590593467 -999970.38658659568
 -2419.6836061738099 6421.5382755883929 -999976.45421150827
 -1834.7135298599942 5717.1672974006624 -999981.97374970571
 -1129.3071022967001 4997.9601130846131 -999986.87244392186
 -265.9054318641148 4248.0984619837182 -999990.94143585057
 802.0113375097369 3446.5148895199336 -999993.73913686618
 2133.7171057603346 2566.5102290621917 -999994.43012276653
 3806.1045590511021 1575.6274161884032 -999991.51544717175
 5920.3864853933765 436.09843946967942 -999982.37926576228
 8611.407552641369 -893.67192265715607 -999962.52180292062
 12058.674175369359 -2455.7133069357087 -999924.27605758538
 16489.786821425467 -4284.3021546219834 -999854.85530932527
 22131.667358863651 -6379.8114281355765 -999734.70846322912
 28923.821138824525 -8600.0899797836719 -999544.62182689423
 35308.671358486557 -10290.087239150278 -999323.47707411984
 0 0 0
 -0 -0 0
 -4450.9293631801693 10970.711214242488 -999929.91390559846
 -8773.9399476405888 11178.031248370031 -999899.02970010217
 -11427.675277987913 11847.72194935231 -999864.51068249834
 -12414.914664904478 12681.769558675236 -999842.50890563952
 -12353.025445696931 13453.766062286184 -999833.18555701023
 -11722.653613969833 14050.284725674963 -999832.57042935665
 -10830.355985762062 14427.860177562538 -999837.25687729719
 -9859.3402225073605 14581.507091948428 -999845.07452970138
 -8913.4315322392358 14527.45411337137 -999854.74135761545
 -8046.0695375489195 14292.982420108703 -999865.47666100343
 -7278.8676036039715 13909.901498341187 -999876.75876915746
 -6613.6858494360013 13410.3400117077 -999888.20472103555
 -6040.5588669059016 12824.18631024034 -999899.52089900302
 -5542.8363479191785 12177.668150516647 -999910.4866755004
 -5100.4319187222236 11492.661078131041 -999920.94904326613
 -4691.7886522531144 10786.407331123459 -999930.81787498167
 -4294.9881139304189 10071.451757432484 -999940.057671758
 -3888.2296513963188 9355.6852011988831 -999948.67509517388
 -3449.7704622652941 8642.463678285294 -999956.70251532726
 -2957.2978259868278 7930.7746923675886 -999964.17795956449
 -2386.6993311074521 7215.4309029703463 -999971.12019457226
 -1710.211534877297 6487.2404377026469 -999977.49519077176
 -893.98933619371098 5733.1331491101055 -999983.16584198608
 104.90458717837971 4936.2344602325875 -999987.81121790723
 1342.2135856782393 4075.9391921990587 -999990.79254880734
 2891.3159915239007 3128.0307659585515 -999990.92781652976
 4849.8690087213718 2064.8892516430606 -999986.10740498651
 7348.9983264652137 855.75850364763255 -999972.62957592041
 10564.306133257625 -532.83161749721387 -999944.05419822875
 14721.089140643513 -2135.2280067130209 -999889.35904722603
 20058.647987107859 -3975.5664710802339 -999790.90089486388
 26604.186717737102 -6011.0022457653777 -999627.97334863001
 33047.495175557924 -7878.146619761972 -999422.73231523961
 -0 0 -0
 7981.279457740935 10936.46050314196 -999908.34230437386
 -360.01211049896813 10749.415325619506 -999942.15855790244
 -6214.5015700285303 11281.541908942336 -999917.04995084135
 -9400.0942506933698 12269.788155080378 -999880.53812778438
 -10786.649339257818 13327.398950944829 -999853.00351263373
 -11103.371793073309 14259.048213228994 -999836.68400338141
 -10827.954466058314 14979.731885720388 -999829.16692538687
 -10255.22582060356 15462.433683985601 -999827.85692734981
 -9561.2525407144385 15710.714396256853 -999830.86364795314
 -8847.079994974596 15744.225343427919 -999836.91097293363
 -8166.6085721043937 15590.647465814785 -999845.10711210989
 -7544.2162576831061 15280.852684890109 -999854.7796266618
 -6986.0466146797353 14845.849427487334 -999865.3888936619
 -6487.3033674507924 14314.823052449094 -999876.49274097639
 -6036.9524994060175 13713.887622845117 -999887.73594378459
 -5620.6900586971387 13065.295952895523 -999898.84782658273
 -5222.7493091736824 12386.958751064214 -999909.63898872025
 -4826.8923230575483 11692.181728257396 -999919.99379797117
 -4416.7848198687798 10989.590804375986 -999929.85799295316
 -3975.8090877864024 10283.221084443594 -999939.22230614896
 -3486.319096904042 9572.7593318875133 -999948.10258229333
 -2928.3111635834694 8853.8976847935664 -999956.51579932019
 -2277.532378364504 8118.7647571643611 -999964.44862059155
 -1503.0557033777791 7356.3821546888321 -999971.81183528702
 -564.33980604877502 6553.1275246402765 -999978.3687861599
 592.35992947441468 5693.1689252803553 -999983.61833447148
 2038.5848432484654 4758.8365113084328 -999986.59873365087
 3869.9347194567194 3730.8086613468358 -999985.55223163078
 6214.7350184521756 2587.9053407298015 -999977.33965055319
 9245.0198220244365 1306.1826260617318 -999956.4107977096
 13185.688111781743 -142.69055153320343 -999913.05485448346
 18303.117388663162 -1792.0879398884931 -999830.87785618624
 24801.011073084028 -3669.4692705998154 -999685.67302178801
 32349.650895176175 -5693.2995907769682 -999460.3976280049
 38924.01421663176 -7034.067557744369 -999217.41528601095
 8819.0180055019955 9702.3689924938553 -999914.04078418249
 1798.2694329800916 10095.765194874803 -999947.41949373332
 -3918.8813877307721 11034.937856433333 -999931.43390693213
 -7354.8681897535316 12284.891762643068 -999897.48841983371
 -9101.2263862811433 13544.32766613708 -999866.8505687837
 -9790.3812499477644 14648.481454647597 -999844.7731653417
 -9865.3498254155238 15526.965555250428 -999830.77978899411
 -9607.0235553475413 16159.699045659036 -999823.26899565652
 -9186.0612833174564 16552.662917581973 -999820.79675731668
 -8702.2209715828758 16725.258877624106 -999822.25273577403
 -8210.4139038671619 16703.530867527832 -999826.77557669184
 -7737.498456950274 16516.307192981072 -999833.65752225788
 -7293.1110014950918 16192.818297897635 -999842.289147389
 -6876.6814705284814 15761.09207723396 -999852.13868275832
 -6481.939422996109 15246.778447999162 -999862.75068545004
 -6099.7435837673484 14672.248235486017 -999873.7511605795
 -5719.7512636536212 14055.903657577082 -999884.85137932305
 -5331.2627671238115 13411.706362799074 -999895.84646089294
 -4923.4072656669023 12748.937034963996 -999906.60797165206
 -4484.7513979817813 12072.210398083784 -999917.07093188597
 -4002.3377307441519 11381.731605445315 -999927.21609042678
 -3460.1744068041912 10673.772414063347 -999937.0469062177
 -2837.2037582191679 9941.3089176727135 -999946.55889794324
 -2104.8172505595489 9174.7757852077211 -999955.6956353779
 -1223.9342081310917 8362.8701133662562 -999964.28155635693
 -141.56068056464784 7493.3509185690982 -999971.91443189303
 1213.4971509475713 6553.7271558955636 -999977.78779582423
 2936.3529187425788 5531.6903505127202 -999980.38892440416
 5153.9590374555582 4415.0582383330611 -999976.9717183453
 8035.4499253931335 3191.0446716234837 -999962.62369070575
 11802.188940879463 1845.1283646852487 -999928.64937330503
 16723.338065411248 362.11571996496946 -999860.08963062183
 23040.545400489958 -1257.5313012219553 -999733.74049427488
 30613.505932129723 -2906.9026169229573 -999527.06975435093
 37597.485645231813 -4078.4366471100857 -999284.64184519101
 10515.137101501266 8417.9965677879718 -999909.28049774666
 3904.5607476616906 9243.5638440010553 -999949.65419906517
 -1693.7634297626955 10511.748945275089 -999943.31554321409
 -5302.3154677271195 11976.63353386961 -999914.21917076281
 -7357.8826232423125 13415.521830760819 -999882.93581664388
 -8390.8735312630251 14693.015010681085 -999856.84402882308
 -8798.3614043295311 15746.591958007439 -999837.30360409466
 -8842.8718167304341 16557.308589881533 -999823.81405440241
 -8688.4736393678795 17129.632488425184 -999815.52604299423
 -8433.3034102832989 17480.146941227846 -999811.64418929571
 -8132.873913958786 17631.548460737453 -999811.47465948632
 -7815.8020742329345 17609.390341932965 -999814.39408008207
 -7494.2684831259085 17440.143988623462 -999819.8224268005
 -7170.9160504347274 17149.839184416258 -999827.21556224208
 -6843.3295507766225 16762.945516253418 -999836.07281307783
 -6506.8199119754536 16301.369256416385 -999845.95146202331
 -6156.0034322417523 15783.573816185712 -999856.4809108011
 -5785.4730526486474 15223.879298474772 -999867.37210525211
 -5389.7526888057155 14632.022940439781 -999878.41984444507
 -4962.6188890120702 14013.028374903346 -999889.49761937512
 -4495.8487765911932 13367.411853703299 -999900.54487639503
 -3977.430436733131 12691.699335774822 -999911.54649553436
 -3389.3129958534505 11979.218748179934 -999922.50243486324
 -2704.7720968690255 11221.096237928929 -999933.38338467479
 -1885.4574294909864 10407.394751703325 -999944.06402796542
 -878.06145774008382 9528.2961522528567 -999954.2192423169
 389.64128005104391 8575.2190337721404 -999963.15622036578
 2013.9295641348065 7541.7019936444112 -999969.53294525412
 4122.1746213642618 6423.8922178940138 -999970.87021831004
 6882.19327467728 5220.6097093217686 -999962.68962896452
 10511.95663010058 3933.7257679996455 -999937.01030084351
 15278.292207774908 2572.259760296185 -999879.97143004113
 21438.132722493923 1171.8716577981882 -999769.4900236706
 28937.25041076374 -141.41255035605553 -999581.22008226812
 36065.339129796361 -1033.0001827240633 -999348.90014652815
 12812.210114902569 7161.5154669039312 -999892.27418166865
 6274.5653695326437 8227.2527917920597 -999946.46963771177
 619.2026700610553 9735.0451912207027 -999952.42160973733
 -3190.1891909175611 11388.641302323116 -999930.05832518754
 -5534.3112026656863 12996.56388848662 -999900.22538581537
 -6884.511466934784 14445.404171243452 -999871.9587028086
 -7602.3557576526346 15680.244794064556 -999848.15552669414
 -7933.6565220392322 16682.709790285098 -999829.35758470476
 -8035.9026708202964 17454.761124494788 -999815.36074534885
 -8005.3061537020149 18009.098315799281 -999805.77486391703
 -7897.4416909958163 18364.037708447697 -999800.17630213476
 -7741.9041101969706 18540.848273132779 -999798.12955719267
 -7552.4504551214022 18562.232101692854 -999799.18185179867
 -7333.9092371421957 18451.229054716972 -999802.86352944176
 -7086.7463314890965 18230.199155285074 -999808.70063487254
 -6809.9102933449867 17919.781954534494 -999816.23638371599
 -6502.3661399514922 17537.863030533394 -999825.05599474942
 -6163.6159217255336 17098.660447423958 -999834.80918083305
 -5793.3883588223871 16612.047607638549 -999845.22628535132
 -5390.6324905176543 16083.220791478281 -999856.12519518251
 -4951.8950067977794 15512.760987046877 -999867.4077008412
 -4469.1759914296108 14897.109871217521 -999879.04397654149
 -3927.3574868964115 14229.424519194299 -999891.04373477749
 -3301.3327055495447 13500.768037681622 -999903.41056762065
 -2552.9233057868587 12701.553661422698 -999916.07303672272
 -1627.5915604060503 11823.155926793601 -999928.77942863654
 -450.74132752861749 10859.54934003068 -999940.9317656653
 1076.8565467026431 9808.8241363836769 -999951.31248928281
 3085.2282074530244 8674.4154140612591 -999957.61704390869
 5743.448616383931 7466.0529522110701 -999955.63444150158
 9268.6320090370464 6201.000526684008 -999937.81809327961
 13926.44629712526 4907.9544654484771 -999890.97709525225
 19982.380779958399 3640.3334940084551 -999793.70493638213
 27422.44893946471 2511.6355507980102 -999620.77858607075