# OOMMF OVF 2.0
#
# Segment count: 1
#
# Begin: Segment
# Begin: Header
#
# Title: Oxs_TimeDriver::Magnetization
# Desc: Oxs vector field output
# Desc:  MIF source file: /mnt/gpfs/work/plgrid/groups/plggspinsym/MF/switching-obrazki/p-ap/Anisotropy.mif
# Desc:  Iteration: 22600, State id: 158350
# Desc:  Stage: 0, Stage iteration: 22600
# Desc:  Stage simulation time: 3.32737e-09 s
# Desc:  Total simulation time: 3.32737e-09 s
# meshunit: m
# meshtype: rectangular
# xbase: 1.0000000000000001e-09
# ybase: 1.0000000000000001e-09
# zbase: 3.4999999999999998e-10
# xnodes: 35
# ynodes: 35
# znodes: 5
# xstepsize: 2.0000000000000001e-09
# ystepsize: 2.0000000000000001e-09
# zstepsize: 6.9999999999999996e-10
# xmin: 0
# ymin: 0
# zmin: 0
# xmax: 7.0000000000000005e-08
# ymax: 7.0000000000000005e-08
# zmax: 3.4999999999999999e-09
# valuedim: 3
# valuelabels: Magnetization_x Magnetization_y Magnetization_z
# valueunits: A/m A/m A/m
#
# End: Header
#
# Begin: Data Text
 -0 0 -0
 0 0 -0
 -0 -0 0
 -0 0 0
 0 0 0
 -0 0 -0
 0 0 0
 0 -0 0
 -0 0 0
 0 0 0
 0 0 0
 -0 -0 0
 0 0 0
 11034.067217780157 3715.7592481107886 -999932.21894978662
 12956.517238735425 5976.0704062634131 -999898.20244039944
 15134.526157151904 8637.4316702788092 -999848.15891821287
 16688.442164657969 11202.545297611319 -999797.97903225
 17410.677038876845 13576.202618278938 -999756.24781619431
 17263.980602112515 15756.155229842621 -999726.81195721822
 16269.096073738106 17727.207404779128 -999710.48940709408
 14629.231663025937 19379.300554088401 -999705.17068332888
 13187.131598394288 20398.440285193294 -999704.95807219925
 0 0 0
 -0 0 -0
 -0 0 -0
 -0 0 0
 0 -0 0
 -0 0 0
 -0 -0 0
 0 0 0
 0 -0 0
 0 -0 -0
 0 -0 0
 -0 -0 0
 0 0 -0
 -0 -0 -0
 -0 -0 -0
 -0 -0 -0
 -0 0 -0
 0 0 -0
 0 0 -0
 -0 -0 0
 0 0 0
 0 0 -0
 0 0 0
 6880.3524493943723 387.48924947145349 -999976.25501921459
 9774.0276173708644 2072.9133686210498 -999950.08446137002
 12264.943127181117 4137.0103487855768 -999916.22464857576
 13111.00747831447 6291.3673737716999 -999894.25449868036
 14655.363242684916 9144.4771213586573 -999850.7883011353
 16380.58736927975 11795.767859224879 -999796.24735145352
 17653.144177424143 14072.459987517152 -999745.13370686176
 18228.803321460364 16042.199872610681 -999705.13580391044
 18035.822595692098 17814.174387045332 -999678.63050792716
 17088.745241044107 19510.819675138253 -999663.59476660495
 15574.714853456744 21274.97872526772 -999652.34133546287
 14129.981330306993 23236.523507485515 -999630.13540153496
 13336.148328537984 25532.388553851604 -999585.0360437046
 11386.653947972063 26277.70935641112 -999589.82893127168
 8904.2746697575276 26343.104090182933 -999613.30261231482
 -0 0 -0
 0 -0 0
 -0 0 -0
 0 -0 -0
 -0 0 0
 -0 0 0
 -0 0 -0
 -0 0 0
 -0 0 -0
 -0 0 0
 0 -0 -0
 -0 0 -0
 -0 0 0
 -0 0 0
 -0 -0 0
 0 0 -0
 0 -0 -0
 -0 -0 0
 1798.7999084932001 705.47128031294449 -999998.13331283885
 4907.5001185304236 1981.892017466927 -999985.99417522748
 7881.1417806380086 3544.7441646107145 -999962.66049940139
 11001.264161831175 5900.7244694170158 -999922.07378254144
 13557.404242900968 8122.3492296939803 -999875.10431712691
 15117.651162409891 10314.218549479749 -999832.52273520548
 16465.546924646624 12657.780297564555 -999784.30992010015
 17703.05995426936 14781.740358536177 -999734.01553624659
 18585.822196508081 16538.224498763124 -999690.47927031328
 18938.104839856413 17979.771751161443 -999658.97984905366
 18691.068465331988 19234.548071199137 -999640.27335843223
 17866.91040682359 20461.43084378729 -999630.98359361582
 16617.859900363583 21820.541370498056 -999623.7845842957
 15257.935294035398 23361.571393315509 -999610.64039584831
 13849.582403271921 24850.499345802175 -999595.23895900953
 11619.875908479122 25855.531174693799 -999598.15425577166
 8678.0246136817186 26846.13027960806 -999601.90935082478
 5728.3098378356062 27738.67457501022 -999598.79571717337
 2982.5376740258871 27595.17985204569 -999614.73104289372
 -0 0 -0
 -0 -0 -0
 0 0 -0
 -0 0 0
 -0 0 -0
 0 0 -0
 0 -0 -0
 -0 -0 -0
 -0 -0 0
 0 0 0
 0 0 0
 0 0 -0
 -0 0 0
 0 0 0
 -0 -0 -0
 115.95924396583264 2413.511407315948 -999997.08075380919
 2663.9240438343777 3546.9351023617219 -999990.1613316345
 6304.0376944160316 5704.1459243136578 -999963.86026097042
 9681.6536176344325 7928.8761837784032 -999921.69618710189
 12622.304362408951 10188.820055478629 -999868.42403311247
 14953.467718866545 12205.787818521489 -999813.68891754514
 16575.07400879815 14025.727259883655 -999764.24515804439
 17758.885737535595 15732.631609892498 -999718.51352267573
 18645.376129045573 17213.926799315603 -999677.96348281787
 19192.808519044458 18393.216355018056 -999646.60040099616
 19327.916825192497 19300.414573821821 -999626.89320990012
 19017.430165221995 20034.837577760776 -999618.39850672195
 18286.538029709885 20724.946642646097 -999617.96658200747
 17225.505272454728 21484.810200453332 -999620.77054188843
 15945.255839847669 22344.726261241685 -999623.1600080661
 14384.82789814468 23224.128601792676 -999626.78864515631
 12227.254373558 24094.581683076423 -999634.90604520286
 9432.1282202656748 25168.356830920278 -999638.72912751255
 6155.7719695610722 26351.72348077274 -999633.77951180295
 2495.1127400436717 27329.921296510369 -999623.35397605703
 -480.62553264909775 27814.657064056777 -999612.98203430034
 -0 -0 -0
 0 -0 0
 -0 0 -0
 -0 -0 -0
 0 -0 -0
 0 -0 -0
 0 0 -0
 0 -0 -0
 -0 0 -0
 0 0 -0
 -0 0 0
 -0 0 0
 -0 0 -0
 -501.42983954986147 4177.1589440172284 -999991.14991647413
 1451.3645055304523 5181.303290898305 -999985.52371385857
 4684.7509730370994 7371.6066020216513 -999961.8555347129
 8241.6236072189022 9792.335377190404 -999918.08954942774
 11433.419941178481 12002.308283140881 -999862.60131296294
 14067.900757862873 13951.752668904852 -999803.70211643679
 16097.466274123044 15596.632896481684 -999748.77675436321
 17536.695773355284 16972.535245167939 -999702.15431832697
 18512.151455265466 18125.545130837243 -999664.3260926177
 19128.159606776408 19037.09708736117 -999635.78489595093
 19414.401333389123 19688.887789534772 -999617.64126013569
 19366.061936622085 20109.652607035638 -999610.20278761222
 18984.986072713324 20372.31538719693 -999612.19433817593
 18297.35108240704 20571.027613867343 -999620.94804294524
 17349.693079313085 20791.117061261652 -999633.29156316048
 16170.619074466653 21080.561392925407 -999646.99819991854
 14696.719921101097 21460.178241513808 -999661.67635525716
 12770.280146406994 21996.290578152588 -999676.48924328701
 10288.465309943476 22825.675264626043 -999686.51887993375
 7198.6173500843561 24007.838331239236 -999685.85245911533
 3534.9417240530966 25528.01344614313 -999667.85719883034
 -117.59292440058933 27134.006481329285 -999631.798145785
 -2622.2357693046665 27943.757511279357 -999606.05755253462
 0 -0 -0
 -0 0 -0
 0 0 0
 0 0 -0
 0 -0 0
 -0 0 0
 -0 0 0
 0 -0 0
 -0 -0 -0
 -0 -0 -0
 0 0 0
 -830.95579907857575 6383.7913662560368 -999979.27814542828
 771.32804874547719 7013.7114800378058 -999975.10614230577
 3586.8779270993005 8920.3430621979405 -999953.779825042
 6888.0697154718991 11239.781929235887 -999913.107123703
 10113.286737075598 13459.660150921625 -999858.26944622269
 12921.728484046293 15367.189772028312 -999798.41888827505
 15187.515818938466 16932.982289740361 -999741.27326725121
 16894.048326295797 18169.150506527698 -999692.18917675875
 18079.276494883725 19111.598675735848 -999653.88338038232
 18825.060216048882 19796.015508373806 -999626.79779898573
 19212.142019382612 20236.602850333122 -999610.61094013264
 19292.522525250883 20445.992054041752 -999604.80190100067
 19096.387579431695 20457.747645695359 -999608.32756769366
 18648.726658586125 20330.043053080961 -999619.38473774795
 17978.084282934771 20135.278644536804 -999635.61313081614
 17111.372799007615 19944.696592106458 -999654.64536447893
 16051.99378282995 19818.415232541942 -999674.72905603971
 14751.267497886405 19815.522765899357 -999694.82601677999
 13110.384240143865 20022.417931401153 -999713.56928134977
 11023.130446892683 20558.465319100596 -999727.88302561315
 8392.3286418801654 21537.635348919739 -999732.81384755159
 5182.8209088634703 23042.89364808871 -999721.0428013152
 1593.1645497665991 25001.151505917562 -999686.1528750388
 -1813.1568506541937 26917.355538950687 -999636.01797505503
 -4089.7419427944101 27825.076676238852 -999604.44132606918
 0 -0 0
 0 0 0
 0 -0 -0
 0 -0 0
 0 -0 -0
 -0 -0 0
 0 -0 -0
 0 -0 0
 0 0 -0
 -1147.5996830894805 9147.3722874723499 -999957.50339462003
 173.71562961783798 9274.979299817609 -999956.97136520245
 2660.4597621504936 10684.613949694643 -999939.37865182594
 5700.5559520840516 12642.272686311182 -999903.83367760025
 8799.187099408171 14658.21357385036 -999853.84485994396
 11642.282360011037 16464.843748005125 -999796.66241781553
 14050.12054342987 17951.522881555997 -999740.13470448821
 15951.643115697574 19100.925643876013 -999690.30190427322
 17345.620716882346 19931.278604050131 -999650.87584373844
 18272.123118176496 20474.249910192761 -999623.39638854458
 18796.377719239495 20762.08513141565 -999607.73906849674
 18987.975720043563 20820.840229751597 -999602.8958492378
 18905.895659912607 20677.221948523875 -999607.43274636939
 18596.420801063512 20368.3189308205 -999619.57999897248
 18097.40236061528 19944.571971938491 -999637.28325660911
 17440.482870149252 19465.625047901627 -999658.40115448972
 16646.667026186664 18993.573172604447 -999681.01545195712
 15714.811829690665 18589.844089412385 -999703.68729233393
 14609.392702048433 18321.082415750388 -999725.41409328615
 13260.19477082541 18270.889278043451 -999745.13844260783
 11575.771290246012 18543.246614643122 -999761.04621255596
 9456.9198632495081 19250.896487141348 -999769.95836599392
 6826.3999938182687 20493.640657761232 -999766.67825833999
 3690.8032351677612 22292.771372874402 -999744.67256194749
 213.72678667818815 24464.347007795386 -999700.6802270083
 -3142.3733909566736 26462.275590382524 -999644.87367267092
 -5468.3426703888053 27309.936478607025 -999612.05704912019
 0 -0 0
 0 -0 0
 0 0 -0
 0 0 -0
 0 0 -0
 0 -0 0
 -0 0 -0
 -1520.3501070438363 12461.707261420526 -999921.19408865541
 -525.4929173186033 11999.005633466692 -999927.8712592232
 1633.3951077198535 12774.398230327535 -999917.06994644064
 4443.4171473115448 14203.321418766162 -999889.2547201066
 7420.0223563975387 15833.262473705361 -999847.11384674662
 10247.655371783769 17385.893733561021 -999796.33739000419
 12737.965633196358 18711.511484869683 -999743.7789601289
 14790.284352077317 19746.214478938709 -999695.6209279584
 16369.220248657026 20478.986063702672 -999656.270804247
 17485.380072580443 20925.029929473276 -999628.13316061092
 18179.638462059687 21111.038835051404 -999611.83705711167
 18510.91418839775 21067.097964267294 -999606.68437104486
 18543.990127860132 20823.302155374076 -999611.17966811662
 18339.981466918471 20411.766986210325 -999623.4315222376
 17951.981407976607 19870.351895653159 -999641.38343661558
 17424.114914871552 19244.100456801105 -999662.97561580327
 16790.468008536176 18583.636758503817 -999686.31511533761
 16071.427257582105 17942.480329079175 -999709.84621816408
 15267.327844500398 17376.296113734472 -999732.45072562096
 14352.36618408836 16946.06537706505 -999753.38981828594
 13273.267182032661 16723.420862019793 -999772.0478053916
 11953.493248987976 16792.830588908921 -999787.5348492593
 10299.992364797356 17247.03322586888 -999798.204640412
 8215.6008220109325 18173.654067900676 -999801.09131814481
 5620.0628653094018 19622.822056832898 -999791.65817079891
 2481.5013780315767 21549.107057323374 -999764.71138760576
 -1103.7774772134242 23719.531650949437 -999718.04299689422
 -4718.2842552684524 25558.335579634593 -999662.19758280611
 -7425.2948905577596 26066.937827685346 -999632.62239088397
 0 0 0
 0 0 0
 -0 0 0
 0 -0 0
 -0 0 -0
 -1367.4597301064591 15790.739016517615 -999874.38341783651
 -1212.7621817021914 14920.965075021575 -999887.94072591967
 435.7915047480497 15065.010453188144 -999886.4213228469
 2967.6439344020282 15907.641379911754 -999869.06144515064
 5823.6332485806479 17061.552910869439 -999837.48114783899
 8642.8432441212608 18253.709222781246 -999796.03087843244
 11208.971296045644 19320.100358444881 -999750.5152209847
 13400.349434758606 20172.26819956283 -999706.7121064614
 15158.723905935001 20772.286429882974 -999669.30792438483
 16471.366037817745 21114.8166221393 -999641.36500039941
 17358.515780113186 21213.525035549719 -999624.26355380018
 17863.227759658341 21092.237834364561 -999617.93831300607
 18042.531840108695 20779.595923253226 -999621.26599931077
 17959.07693017081 20306.475539457457 -999632.49177234189
 17674.130450403067 19705.898719849636 -999649.58994062792
 17242.913133897619 19014.000424591963 -999670.52058891417
 16711.801349919773 18270.427615138353 -999693.40658543969
 16115.977758556506 17517.686869747769 -999716.66281382903
 15476.343218718779 16800.208085216727 -999739.08386582031
 14795.578273209745 16164.412585449307 -999759.87248405244
 14054.530867825752 15660.500974866463 -999778.58492333291
 13210.538224572618 15345.08605490405 -999794.98399111035
 12197.968628360875 15282.426355193638 -999808.81022625498
 10929.933252766954 15542.198905974143 -999819.47201095114
 9301.0553364375628 16191.919440731843 -999825.64085667103
 7191.6674527348032 17280.441717744608 -999824.81778223976
 4477.1945469387165 18808.813163165345 -999813.07416755764
 1063.4321032188177 20679.410654172851 -999785.59255830327
 -3002.4270580193602 22595.385134549186 -999740.18324881908
 -7260.4584171399974 23886.768905387467 -999688.30543066456
 -10482.652678016753 23498.251019103733 -999668.91828838794
 0 0 0
 -0 -0 -0
 0 -0 -0
 0 0 -0
 -995.26408845309641 16785.501112355229 -999858.61820649484
 -530.92390301715875 16935.918188202795 -999856.43609216786
 1394.3953820794193 17449.043489657721 -999846.78153345792
 3997.4030066653022 18211.892121133347 -999826.15876689798
 6762.5686058323963 19048.425241096156 -999795.69170990435
 9394.5537846914358 19821.8119314588 -999759.39011891268
 11727.309144665971 20445.261601761707 -999722.19216053258
 13673.895956394841 20871.89207073897 -999688.64587468479
 15199.214866184971 21083.729230834506 -999662.17305106251
 16304.475755350042 21082.92575514616 -999644.77406323992
 17016.979609011189 20884.839819974652 -999637.05707155576
 17382.139746637487 20512.894863459831 -999638.47583121236
 17456.456920195833 19994.975218457421 -999647.6744722646
 17301.028178696833 19361.220151922509 -999662.85195469216
 16975.918143584171 18643.088252650166 -999682.07619401987
 16535.806300574324 17873.168709354199 -999703.51452331967
 16026.791316524903 17085.093640547424 -999725.583115382
 15483.75989122582 16313.285272647836 -999747.03295545932
 14927.741282983354 15592.781275477771 -999766.98670854478
 14363.101855920342 14959.612856199108 -999784.93251712341
 13774.962775803595 14451.945575525615 -999800.67596976925
 13127.330698780501 14111.528553643964 -999814.25172409113
 12361.870756242472 13984.41759882931 -999825.79493421107
 11396.55874112852 14119.865095672167 -999835.36037616699
 10123.380159114944 14566.294976888303 -999842.65773410571
 8404.7261381904937 15362.905672155119 -999846.65909720911
 6071.1036043005615 16524.830813682191 -999845.02382499503
 2933.139313359542 18016.653179568104 -999833.38457063725
 -1151.3614457767355 19701.748454908826 -999805.23877135222
 -6021.8956971973257 21253.655649372504 -999755.97967391508
 -10322.741635017815 22093.590144981546 -999702.61292028334
 -0 0 -0
 -0 -0 -0
 0 0 -0
 2595.1001350459342 18588.797196909516 -999823.84552183072
 436.45064285944494 18085.760739124784 -999836.34399301733
 557.61514629962494 18380.394102319842 -999830.91079341609
 2308.924565666337 18966.313464353883 -999817.45724953304
 4747.7027395785963 19588.77396515548 -999796.84899145318
 7325.7523347826509 20139.753319234722 -999770.33547158691
 9753.0248507273263 20558.655300939703 -999741.07657856995
 11877.315635183812 20810.889878667851 -999712.87689804228
 13624.928255861925 20881.200226458197 -999689.12008040061
 14971.238425676403 20769.365147369983 -999672.19401730713
 15924.613733501674 20486.601264274741 -999663.29623832705
 16516.266841511948 20052.310378789683 -999662.50193657505
 16792.72477216275 19491.18428677975 -999668.99428251991
 16809.510407725713 18830.77743245081 -999681.3703281373
 16625.577683764859 18099.700712931946 -999697.94988325541
 16298.536586225688 17326.519079715519 -999717.03468617925
 15880.796745760937 16539.228030627524 -999737.09255527321
 15416.544120665229 15765.067243954374 -999756.86685422133
 14939.24671794837 15030.51511849622 -999775.42604465573
 14469.355661985877 14361.490356235805 -999792.17107430613
 14012.048987008238 13783.879455635097 -999806.81491493061
 13555.064867840201 13324.406149975644 -999819.34389027441
 13066.674932186146 13011.592826026468 -999829.96577335405
 12493.521571192747 12876.33296110345 -999839.04303053941
 11757.605610901503 12951.549199977788 -999846.99633674906
 10751.474561052299 13270.469528523179 -999854.13957899681
 9331.0373605173518 13863.032400738242 -999860.36428815045
 7307.7063919588381 14749.689485827608 -999864.51286529854
 4449.3045107334474 15930.715864238648 -999863.1986334048
 522.58061604680688 17366.08999337623 -999849.06152270897
 -4516.6934771809083 18929.680979902365 -999810.61539575213
 -9914.336590252653 20241.098529894873 -999745.96966443327
 -13587.162752931496 20153.224553297699 -999704.574636142
 -0 -0 0
 0 0 -0
 3034.202560553646 18481.538257113207 -999824.59779626958
 1364.1943987970706 18639.256449497221 -999825.34329384367
 1534.5646100621971 19084.45464671704 -999816.6975512536
 3073.7036207936417 19631.969914318415 -999802.54955832893
 5257.0421096980008 20099.716771477008 -999784.15915334621
 7595.8787926806972 20414.448611599568 -999762.74831244384
 9808.5868433969263 20553.992045180239 -999740.62888088229
 11743.749914624317 20516.214148389241 -999720.54560009926
 13329.01504683163 20309.11775642278 -999704.89500343904
 14541.802847782807 19947.702649828709 -999695.26613310049
 15392.180680558598 19452.376100383663 -999692.29557796742
 15911.900387429483 18847.465026933653 -999695.7459587988
 16146.528251719281 18159.596707431712 -999704.71574002295
 16149.24415603498 17416.095600488992 -999717.90097368148
 15975.733558660297 16643.635322333248 -999733.84725161723
 15679.995020929215 15867.322072730949 -999751.15196051844
 15310.979896083332 15110.241292039353 -999768.60047848953
 14909.915036380416 14393.382505987051 -999785.23942576989
 14508.066176234188 13735.839331166071 -999800.40144705609
 14124.705195237721 13155.228518924871 -999813.69897884584
 13765.123755754437 12668.312366770664 -999825.00230278622
 13418.625010205837 12291.777609850571 -999834.41264342656
 13056.371997255808 12043.039004658885 -999842.2357361191
 12628.753149090873 11940.863735180294 -999848.95377609774
 12061.59175097773 12005.630996017935 -999855.18092812831
 11250.324285117969 12259.126300060489 -999861.56243043917
 10051.564822481261 12723.841190150004 -999868.52631232864
 8273.3398666065077 13421.577546760524 -999875.69882641325
 5671.4777923050615 14369.924485649657 -999880.66268426669
 1977.8823610261688 15569.993998226289 -999876.82404797291
 -2963.886335445924 16959.328161467161 -999851.78729954886
 -8772.6854047108354 18256.218454392289 -999794.85419686744
 -13516.903048930566 18773.485711721121 -999732.38897526858
 0 0 0
 -0 -0 0
 4461.5926025034796 17960.612132117141 -999828.74063675979
 2622.4444070321406 18424.532188623642 -999826.81470290758
 2512.8050956417023 19014.327646734546 -999816.05365921883
 3717.8316569944536 19528.180785027198 -999802.39441751572
 5584.6589251297237 19868.739687894311 -999786.99969938828
 7655.0176606054592 20004.963020297477 -999770.57476161618
 9649.3670931354864 19940.682397789951 -999754.59933936421
 11411.035183139629 19694.401012362548 -999740.92586270231
 12862.8319861576 19290.425351020542 -999731.17738873814
 13978.896445210499 18755.700867986263 -999726.36963277345
 14766.817759105641 18118.585335051808 -999726.79165796388
 15255.771652071191 17407.968272853082 -999732.07614435942
 15488.108849502229 16652.293442033173 -999741.3763606
 15513.046071524597 15878.527112600703 -999753.57852738758
 15381.795212061637 15111.263068970835 -999767.49802367284
 15143.779914176836 14372.130970176091 -999782.03013521247
 14843.696684395913 13679.571799943886 -999796.24623425747
 14519.174496974863 13048.948912030959 -999809.44109576067
 14198.789220960345 12492.916397783078 -999821.1447176626
 13900.217338226683 12021.972837263125 -999831.11380225106
 13628.389335815198 11645.145474285076 -999839.31588580483
 13373.53341922556 11370.756843157511 -999845.91537531372
 13108.954493675015 11207.211424201008 -999851.26580115699
 12788.201188789679 11163.744831037986 -999855.90597430721
 12341.029904343644 11251.123537538258 -999860.54587629531
 11667.389433606215 11482.379686665086 -999866.00451287255
 10628.899856995369 11873.748373642238 -999873.01223074785
 9038.7223621999019 12445.86075615116 -999881.69402589684
 6655.2950231044924 13224.306784832766 -999890.40637372644
 3198.1944253454831 14235.137256372858 -999893.56054517592
 -1559.4615044685022 15480.84519313674 -999878.94842921966
 -7450.2830965045932 16863.416036493691 -999830.0447982956
 -12745.785405478744 17994.756811022558 -999756.83727679972
 -0 0 -0
 12373.66416003294 17608.739768608397 -999768.38553687814
 7216.0191715362644 17496.940774949639 -999820.87702289643
 4213.2037541888913 17832.199484529927 -999832.11669543281
 3511.4088877013023 18372.531835973248 -999825.04473610758
 4275.6120956791683 18818.152114778262 -999813.78080730245
 5787.9414955500042 19058.482302982393 -999801.61731493066
 7577.0643558161191 19072.020324503545 -999789.4008922528
 9355.2193991116528 18874.386828960538 -999778.09407479281
 10957.211216885476 18495.681293813381 -999768.89794383291
 12298.208336538686 17970.630413625633 -999762.87714349944
 13346.046531302842 17334.559032198104 -999760.66941300698
 14102.934903539106 16621.739983363834 -999762.38426289661
 14592.980214319708 15864.510635530554 -999767.65412307647
 14853.354003626833 15092.556795639959 -999775.77116282086
 14927.870489819048 14332.25942502048 -999785.84958100575
 14862.260767050171 13606.186859978878 -999796.97183179331
 14700.681455290618 12932.830799113028 -999808.29755122145
 14483.089357872495 12326.628650938937 -999819.13081754639
 14243.167336874778 11798.247740591616 -999828.95213854744
 14006.525993380907 11355.07269003106 -999837.42656183895
 13788.98443438385 11001.830944158699 -999844.39970634656
 13594.793111621117 10741.309264523197 -999849.89167151297
 13414.7035140758 10575.127002996467 -999854.09556519799
 13223.721781560327 10504.550355935446 -999857.38363231765
 12978.242344232454 10531.353364397804 -999860.31815547566
 12612.030890635691 10658.785386998583 -999863.65419035358
 12030.391298931467 10892.778530650417 -999868.29985807452
 11102.021450165508 11243.601544445199 -999875.15547893767
 9649.1930551959122 11728.1234873761 -999884.66544539435
 7440.363896525093 12372.433066655576 -999895.77651128138
 4198.9815438965443 13213.16930118912 -999903.8857365303
 -330.82447286550246 14291.817764027397 -999897.81202889327
 -6143.770842345205 15618.152914738081 -999859.15377085423
 -12291.047132016376 16970.594189596792 -999780.4404434259
 -16407.647190538875 17276.939548304606 -999716.10793940665
 12850.234909156248 16237.752735909224 -999785.5804365587
 8355.6067524219834 16423.977703138313 -999830.20398075867
 5345.4248486394008 16802.55100752621 -999844.53827223903
 4338.0508661503991 17287.845049049414 -999841.14324638713
 4731.7956913171965 17668.965806688258 -999832.6948829277
 5908.0241289677433 17841.453619005646 -999823.37329332938
 7423.8305902181828 17783.830517138736 -999814.29381235864
 8994.6370653804915 17515.025871738286 -999806.1413958082
 10450.035884681047 17070.464982050362 -999799.6779231854
 11697.77345830014 16490.629922280317 -999795.58971866104
 12698.18635122145 15815.886044576198 -999794.2857468304
 13446.387830092459 15084.169634041513 -999795.81039368955
 13959.707640378145 14329.866124402259 -999799.87072386232
 14268.718075797238 13583.15847368303 -999805.93191396492
 14410.793818043225 12869.608225623406 -999813.33368066896
 14425.510875606102 12209.934679002732 -999821.39511570381
 14351.356573061901 11620.011230641792 -999829.49241533817
 14223.31951213371 11111.079367230421 -999837.10728165659
 14070.988180206639 10690.152951080514 -999843.85176962242
 13916.877738770121 10360.564931356719 -999849.47827575903
 13774.783052779805 10122.614292968638 -999853.88334082346
 13648.046910222456 9974.2812268088874 -999857.11205629038
 13527.64623196611 9912.0003213121763 -999859.36762979464
 13389.96297406652 9931.4946723226494 -999861.0274958848
 13193.951066839782 10028.700481735161 -999862.66298021807
 12877.236195977843 10200.839659081057 -999865.05072344793
 12350.526301871942 10447.738726823736 -999869.14606640558
 11489.855480261645 10773.495981341408 -999875.94980846636
 10127.056894579775 11188.477390935381 -999886.12386227597
 8041.6987521825577 11711.097790830065 -999899.08554299257
 4965.4463462387594 12367.149221677349 -999911.195038195
 630.12627704669808 13178.886103391204 -999912.95616265945
 -5059.9772171900349 14117.719651610554 -999887.53698723519
 -11561.355649869654 14957.239997824563 -999821.29204532574
 -16710.375865255537 15147.321602061367 -999745.62864096859
 13983.816253232189 14235.956833726856 -999800.87538270548
 9464.2214510754584 14760.360451809229 -999846.26831911411
 6331.968452576476 15334.666991633392 -999862.36761054851
 5059.3363364753532 15860.288100864129 -999861.41758605314
 5126.1006068985998 16228.830424769762 -999855.16358901304
 5991.6492741888278 16377.687681846886 -999847.92417905771
 7249.2554045562529 16297.017381451757 -999840.91510627221
 8624.4203377576414 16009.771618942914 -999834.63962124602
 9944.9771105321761 15554.237074422736 -999829.56704595592
 11112.359079314738 14973.64076461991 -999826.13766491646
 12079.189191052905 14310.727583585509 -999824.63275542238
 12832.660446417191 13605.077158085132 -999825.09705517464
 13382.365347754807 12891.786041817395 -999827.34216981253
 13751.451750630447 12200.819601576379 -999831.00450816203
 13970.282534571383 11556.728466538403 -999835.62310664612
 14071.956884635769 10978.613486142685 -999840.7123514018
 14089.162130968809 10480.289438385753 -999845.8176357667
 14051.887903971023 10070.614607898386 -999850.55241658655
 13985.624583725737 9753.948185046147 -999854.62083235197
 13909.751169668232 9530.7037643013591 -999857.83214822866
 13835.933471558179 9397.9726030416041 -999860.11274373927
 13766.417201290495 9350.2097764340251 -999861.52007894416
 13692.144426146031 9379.9840898737002 -999862.26105373492
 13590.552145286636 9478.8084694062964 -999862.71511762391
 13422.797779421133 9638.0704445225838 -999863.45872718014
 13129.950476096199 9850.0948140024975 -999865.28094171279
 12627.54904420216 10109.35976934125 -999869.16436611372
 11797.952995373835 10413.830914437822 -999876.17254878313
 10480.566847195867 10766.145484570094 -999887.11754375871
 8462.1369368761007 11173.710481125929 -999901.76539125363
 5475.2588779075131 11645.031412632146 -999917.20396421768
 1228.8746994276014 12175.615369125997 -999925.11932512023
 -4462.9409725156602 12711.12748663009 -999909.25058021862
 -11257.172219104725 13088.673731153005 -999850.97024186002
 -16979.019036354366 13085.717783169717 -999770.21205008018
 15617.478898813129 12142.78274363562 -999804.30444166728
 10850.752933760625 12857.860696348896 -999858.45827251161
 7403.7283763508412 13608.85810037601 -999879.98469182942
 5794.1589832942082 14225.456660050422 -999882.02509320539
 5525.5536989468719 14633.261181244989 -999877.66047828156
 6089.5775753192092 14803.464009929221 -999871.87904164055
 7100.2066062648682 14742.549996224614 -999866.11318003829
 8289.8997802004033 14479.885809035692 -999860.79554535553
 9484.7618167682613 14056.273443685352 -999856.21989871899
 10580.223883765937 13516.097730998121 -999852.67613018642
 11521.174208030598 12902.675663466476 -999850.38055980753
 12286.58949575013 12255.704457549708 -999849.40737433673
 12877.943779147708 11609.937924939095 -999849.67265354458
 13310.653746068128 10994.564843872402 -999850.96191419743
 13607.90954049118 10433.007217614988 -999852.97777139943
 13796.3226763776 9942.9867172062386 -999855.38879167452
 13902.866277243353 9536.7737880219483 -999857.8700270321
 13952.653480232557 9221.5591686871612 -999860.13337234268
 13967.168179824535 8999.9101861830186 -999861.95038599044
 13962.678639865515 8870.2856746020461 -999863.17145760031
 13948.649860195792 8827.6060787334081 -999863.74498628394
 13926.06525194745 8863.8823676357479 -999863.73886443686
 13885.5688806077 8968.9215222338498 -999863.36537728482
 13805.306327302404 9131.1193259885222 -999863.00870522438
 13648.185747318194 9338.3522044101555 -999863.25175191485
 13358.112994985968 9578.96044427173 -999864.89304006472
 12854.546989063929 9842.7913820668491 -999868.93145027512
 12024.700751178541 10122.185143965071 -999876.46633959527
 10713.094984407482 10412.57762745485 -999888.39768396516
 8709.8081277532528 10711.890649534575 -999904.69277881179
 5743.7026729945464 11016.876360714892 -999922.81617875735
 1501.7899632916269 11313.243436803879 -999934.87545431952
 -4256.5607287050161 11557.428185537876 -999924.15089570603
 -11258.992640619501 11662.331590556647 -999868.60392083041
 -17271.330441839735 11550.356884277275 -999784.1218986297
 17576.926346887361 10063.978710497511 -999794.86295575183
 12499.149096070891 10887.961898978987 -999862.60233972163
 8633.6716919763712 11782.750032453909 -999893.30756575626
 6618.0659585118892 12510.337111787923 -999899.84131827822
 5987.3113085970954 12994.065897512211 -999897.64793940028
 6246.2016190339909 13222.907688350037 -999893.06412115879
 7014.7240189063332 13217.139248745802 -999888.0441714552