# OOMMF OVF 2.0
#
# Segment count: 1
#
# Begin: Segment
# Begin: Header
#
# Title: Oxs_TimeDriver::Magnetization
# Desc: Oxs vector field output
# Desc:  MIF source file: /mnt/gpfs/work/plgrid/groups/plggspinsym/MF/switching-obrazki/p-ap/Anisotropy.mif
# Desc:  Iteration: 29900, State id: 209450
# Desc:  Stage: 0, Stage iteration: 29900
# Desc:  Stage simulation time: 4.40254e-09 s
# Desc:  Total simulation time: 4.40254e-09 s
# meshunit: m
# meshtype: rectangular
# xbase: 1.0000000000000001e-09
# ybase: 1.0000000000000001e-09
# zbase: 3.4999999999999998e-10
# xnodes: 35
# ynodes: 35
# znodes: 5
# xstepsize: 2.0000000000000001e-09
# ystepsize: 2.0000000000000001e-09
# zstepsize: 6.9999999999999996e-10
# xmin: 0
# ymin: 0
# zmin: 0
# xmax: 7.0000000000000005e-08
# ymax: 7.0000000000000005e-08
# zmax: 3.4999999999999999e-09
# valuedim: 3
# valuelabels: Magnetization_x Magnetization_y Magnetization_z
# valueunits: A/m A/m A/m
#
# End: Header
#
# Begin: Data Text
 -0 0 -0
 0 0 -0
 -0 -0 0
 -0 0 0
 0 0 0
 -0 0 -0
 0 0 0
 0 -0 0
 -0 0 0
 0 0 0
 0 0 0
 -0 -0 0
 0 0 0
 28728.654086577859 28819.011910266912 -999171.72147078381
 26408.733264870385 28357.373005156544 -999248.9370540214
 23969.501357912803 27985.177327422021 -999320.91584966111
 21997.306950872291 27907.824826132601 -999368.43646394147
 20329.830912128225 28133.456535195161 -999397.42174895899
 18675.673805476068 28631.994789411987 -999415.5432462967
 16709.173454099389 29374.332102731238 -999428.81294067123
 14121.904568389387 30296.312964637138 -999441.19648537086
 11151.801931937374 31127.207011240407 -999453.21766321326
 0 0 0
 -0 0 -0
 -0 0 -0
 -0 0 0
 0 -0 0
 -0 0 0
 -0 -0 0
 0 0 0
 0 -0 0
 0 -0 -0
 0 -0 0
 -0 -0 0
 0 0 -0
 -0 -0 -0
 -0 -0 -0
 -0 -0 -0
 -0 0 -0
 0 0 -0
 0 0 -0
 -0 -0 0
 0 0 0
 0 0 -0
 0 0 0
 33021.959782882863 26044.506103229898 -999115.22552403167
 30956.949120207522 24923.437039891112 -999209.93269046699
 29340.8321350611 23445.470665884459 -999294.4638468069
 28023.373410178745 23109.347261527102 -999340.1065762646
 25962.381031133766 22041.973019814264 -999419.88483148965
 23926.996871785042 21372.074023489495 -999485.2341443731
 22222.074858704207 21165.00719637343 -999529.00000918005
 20735.657790342197 21331.912169287476 -999557.39305914985
 19244.639865606168 21813.226025292475 -999576.82396442781
 17494.194562462624 22599.448296800252 -999591.52562098636
 15251.151951755017 23725.664918902847 -999602.16845918295
 12587.065069294074 25165.205221361855 -999604.06073560356
 10491.412467348169 26009.76949058118 -999606.63370922382
 8241.6665421665639 28237.252827371009 -999567.27261619107
 5448.79641354876 29920.594064760509 -999537.42734749825
 -0 0 -0
 0 -0 0
 -0 0 -0
 0 -0 -0
 -0 0 0
 -0 0 0
 -0 0 -0
 -0 0 0
 -0 0 -0
 -0 0 0
 0 -0 -0
 -0 0 -0
 -0 0 0
 -0 0 0
 -0 -0 0
 0 0 -0
 0 -0 -0
 -0 -0 0
 37322.901113682034 23541.663402303875 -999025.92115355574
 34941.027057110434 22161.226496826504 -999143.63565422909
 32452.718321427015 21085.094117451059 -999250.83931894111
 29983.205503366014 19185.67619941209 -999366.25779366517
 28087.574180240517 17439.793053756701 -999453.32146874745
 26590.32096490941 16134.949986688383 -999516.19207490084
 25045.382526117421 15013.36241637089 -999573.57296152797
 23575.156764224517 14329.531564546916 -999619.3658131496
 22276.279858380607 14085.253939551163 -999652.62615427014
 21086.856595695754 14203.800491033408 -999676.74601869343
 19868.253884205962 14633.423989349825 -999695.51133829798
 18458.442550211512 15372.87522007386 -999711.43866922357
 16722.652641672605 16472.808072101921 -999724.46178076777
 14671.818297508848 17986.785170747906 -999730.57035736716
 12533.217193943348 19796.968118148769 -999725.46157437551
 10036.437689372897 22134.936039704357 -999704.61363596085
 6831.6374937996161 24524.931406544543 -999675.87570604973
 3471.6715995158543 26033.46951636863 -999655.04348312342
 47.241732892677113 27967.426011012831 -999608.83391981758
 -0 0 -0
 -0 -0 -0
 0 0 -0
 -0 0 0
 -0 0 -0
 0 0 -0
 0 -0 -0
 -0 -0 -0
 -0 -0 0
 0 0 0
 0 0 0
 0 0 -0
 -0 0 0
 0 0 0
 -0 -0 -0
 39169.374484884887 20658.91071844436 -999019.00357820536
 36559.58966486749 19488.693688800686 -999141.42503543547
 33323.19873035109 17169.918390094655 -999297.13215282199
 30562.10965023921 15011.836416921928 -999420.13298768317
 28324.722571057824 13025.94843710098 -999513.89923231525
 26632.930557684325 11419.447009721953 -999580.05344239518
 25333.854914465937 10210.218435334662 -999626.90401703154
 24204.990094485431 9318.0551888864138 -999663.5895650211
 23187.135699949096 8778.3712499264821 -999692.60122111079
 22262.732342665629 8578.5540547060282 -999715.34906640777
 21377.511235916911 8675.9170384539029 -999733.8298151663
 20444.025912557798 9039.7167469937758 -999750.13144566305
 19362.648904125086 9670.7802623167572 -999765.75448278559
 18048.589495116405 10603.304821012409 -999780.88516639953
 16466.995869970415 11881.969136816808 -999793.80717048352
 14613.241842058118 13517.687768494694 -999801.84300703264
 12328.674211497479 15562.400346773069 -999802.88831730897
 9404.1842556125284 17936.803989085776 -999794.89515657327
 5828.5223146993549 20472.340163217264 -999773.4301409839
 1556.1271686076454 23158.332222022735 -999730.59876995359
 -2371.3346246496008 24468.590951821563 -999697.78674804058
 -0 -0 -0
 0 -0 0
 -0 0 -0
 -0 -0 -0
 0 -0 -0
 0 -0 -0
 0 0 -0
 0 -0 -0
 -0 0 -0
 0 0 -0
 -0 0 0
 -0 0 0
 -0 0 -0
 39678.164977969027 19268.836838141884 -999026.70392281609
 37438.08603198421 17450.27439245455 -999146.57465153222
 34109.071842923528 14711.533936293108 -999309.83282826515
 30990.338635353946 12066.282148410672 -999446.84888511244
 28535.477164978638 9898.0874549881246 -999543.77313237265
 26698.550001710031 8169.3688614022267 -999610.14842798223
 25356.772246996334 6851.5664391030323 -999654.98555178754
 24360.707343169619 5891.0019499571199 -999685.87668015284
 23564.157997459359 5226.6647182581 -999708.66377849982
 22879.182606127662 4835.5574074953156 -999726.54280449846
 22250.711330464954 4695.7453426156135 -999741.39447207318
 21624.572846564552 4781.8743618313374 -999754.72568365058
 20938.497061881837 5077.5102132331258 -999767.87217374844
 20126.160640058341 5584.645246100813 -999781.85090316867
 19126.173227931329 6325.2092372931656 -999797.07002259197
 17888.314717343092 7332.4777324490415 -999813.10401838413
 16354.927485862501 8638.9769328743641 -999828.92757935636
 14408.873556667642 10287.401029334695 -999843.2645884502
 11891.767363179386 12303.936145658243 -999853.58879403095
 8655.2422098926727 14712.969596210383 -999854.29703929799
 4563.8598504156489 17544.428726227816 -999835.66859956342
 -91.96690331267277 20428.824848462329 -999791.30555201345
 -3922.3800277529886 22343.047776216568 -999742.66846573446
 0 -0 -0
 -0 0 -0
 0 0 0
 0 0 -0
 0 -0 0
 -0 0 0
 -0 0 0
 0 -0 0
 -0 -0 -0
 -0 -0 -0
 0 0 0
 39835.668703872951 18696.821064152198 -999031.30500550906
 37695.090306402679 16565.23525448954 -999151.97700237553
 34457.737188028099 13459.091828286155 -999315.52434405754
 31284.177409569369 10492.306744858683 -999455.45760828129
 28675.368410536008 8049.0889343215904 -999556.36930282577
 26718.697471212126 6167.5027223166808 -999623.96585696761
 25314.824787227299 4752.4669419739957 -999668.2318169151
 24327.444559585922 3714.5333921263987 -999697.14298025251
 23625.642737638009 2979.5822795846034 -999716.43534287903
 23097.457203324371 2489.5975788292435 -999730.11826924363
 22661.15259316919 2208.7433610294033 -999740.76320609939
 22257.194548049491 2112.5257097631688 -999750.04602449294
 21835.12343008403 2182.9829359911164 -999759.20199330698
 21346.189251133936 2410.8902090226265 -999769.23728071107
 20741.678743197011 2799.0584678957771 -999780.95002585789
 19973.623625182729 3363.1765436046885 -999794.85065828171
 18992.980148055936 4129.2596660461641 -999811.09011638071
 17738.323936030196 5130.8519031638871 -999829.49857597623
 16116.927077212247 6412.193994240095 -999849.55289771874
 14002.567901811311 8028.1584707723769 -999869.72989671188
 11244.574278210654 10053.930051780731 -999886.2325483911
 7688.6440498904394 12580.788336952592 -999891.29835072323
 3319.8184809708769 15606.52652485693 -999872.69946482789
 -1447.0688563531783 18833.163818340243 -999821.5930516388
 -5288.3090920041568 21103.418611197991 -999763.31174426863
 0 -0 0
 0 0 0
 0 -0 -0
 0 -0 0
 0 -0 -0
 -0 -0 0
 0 -0 -0
 0 -0 0
 0 0 -0
 40252.552248413507 18325.665894315811 -999021.47224522603
 37949.58358717915 16177.797375213406 -999148.69162584923
 34621.755513820521 12965.500532823145 -999316.38125324179
 31392.564895664957 9829.671150044569 -999458.79576616548
 28712.441224461079 7206.6261319371088 -999561.73409085965
 26670.862235855577 5164.2399436026826 -999630.92976027948
 25205.05967173199 3634.5270156399506 -999675.69500329299
 24196.282614388863 2513.0188758736581 -999704.06853417074
 23521.42390416771 1707.6895945273448 -999721.87452999596
 23071.685746382034 1147.1689426342084 -999733.15505700675
 22757.567630867798 779.16732604013623 -999740.7093910923
 22509.742809809344 568.65121175419722 -999746.46191643795
 22274.611719582397 492.84466751986025 -999751.76857901865
 22007.925368724842 537.86453127236723 -999757.6515949805
 21669.884350721451 698.14662630467581 -999764.93672438548
 21222.30913382275 977.07438955353837 -999774.30399098864
 20626.639952693346 1387.27013369209 -999786.28576603218
 19840.517225250467 1950.1306011032045 -999801.25568378507
 18810.708614730742 2695.8789476597922 -999819.42843601096
 17463.642523188446 3666.0964336823886 -999840.77778752404
 15699.750979003071 4917.7936094573261 -999864.65740379679
 13392.506045241369 6530.4664137641148 -999888.9907335951
 10397.893324387662 8606.3310659338058 -999908.90329069376
 6602.4775502089515 11237.909865934789 -999915.0547281726
 2029.8042439782616 14420.340039346343 -999893.96122182917
 -2920.4121603394265 17790.861137416316 -999837.46501759137
 -6959.0192823443804 20132.432005823492 -999773.10287492676
 0 -0 0
 0 -0 0
 0 0 -0
 0 0 -0
 0 0 -0
 0 -0 0
 -0 0 -0
 41553.631356513666 17570.225143576092 -998981.77306169656
 38767.087557539824 15756.515537493726 -999124.03891630145
 35068.190885615826 12720.944818413467 -999303.95753791381
 31586.435886166968 9627.9522436870648 -999454.6510990893
 28743.030842700093 6964.5674050595253 -999562.57081727288
 26590.406490483278 4843.6912876037795 -999634.67773851345
 25047.87527190059 3227.1868759080749 -999681.04373806703
 23996.562930072538 2028.7469185135656 -999709.98252167285
 23315.508507770261 1157.0315006247904 -999727.48703890829
 22896.873224527397 534.45375519777463 -999737.68937442976
 22650.451483620152 101.09958036224995 -999743.44050184358
 22503.385982284835 -186.73843935652289 -999746.74930608703
 22398.114657355993 -359.00071194262955 -999749.06630528287
 22288.961138817365 -434.84657492596631 -999751.47567773494
 22138.284711681306 -424.92904284965272 -999754.82783797185
 21913.139494769304 -332.47359116606572 -999759.82304691244
 21582.637591327017 -153.55693724620281 -999767.05595597054
 21115.48738441446 122.86032100922023 -999777.03569238912
 20476.730494601787 515.02143274180344 -999790.19712196384
 19622.868924778675 1049.1052088145223 -999806.90255339886
 18495.781110357522 1761.3936082013943 -999827.38688919437
 17017.132653343189 2701.9781071925859 -999851.5472361719
 15084.337468870925 3939.7134952871161 -999878.46332476859
 12571.015868301251 5564.2386796591054 -999905.49993884645
 9339.8240951441148 7675.8253679801401 -999926.92202520068
 5277.1688717227662 10349.483355499424 -999932.51756454725
 384.23532016864971 13531.837678597096 -999908.36666779558
 -4971.2418779668551 16795.130771566342 -999846.59340148617
 -9511.0934326749139 18880.58927336178 -999776.5062504746
 0 0 0
 0 0 0
 -0 0 0
 0 -0 0
 -0 0 -0
 44168.74539061579 15657.740033859329 -998901.37506545207
 40760.256909723226 14798.562617709074 -999059.35959836899
 36331.123581602682 12341.571072802097 -999263.59639624285
 32272.637291560935 9539.2921134800054 -999433.57897772349
 29034.176642545735 6998.7324526334378 -999553.91767065064
 26627.937294113362 4907.4603233877988 -999633.3676846904
 24927.905969127987 3272.1914489201426 -999683.89617274306
 23783.78751592695 2033.3270105882241 -999715.05792033824
 23057.602073286896 1114.5217821395538 -999733.51690729416
 22632.594940012405 443.25099385568672 -999743.7517558377
 22413.495753469597 -41.100495172438677 -999748.78520499275
 22323.991777133226 -385.59828333638654 -999750.71428086434
 22303.509217083127 -624.81374947567656 -999751.05055427761
 22304.060571510861 -782.59743541098044 -999750.92719300662
 22287.212937272154 -873.94819679671025 -999751.22723307402
 22221.278817575814 -906.53186038003253 -999752.6658967695
 22078.844482375429 -881.64819055165651 -999755.84385528392
 21834.570393734433 -794.7360710817336 -999761.28147188143
 21462.948249845849 -635.56749809281098 -999769.44237478054
 20935.548812749217 -388.1354135869073 -999780.75203857059
 20217.367097631817 -29.973586371985693 -999795.6076965048
 19262.271008547043 469.44463687180712 -999814.35503663681
 18007.927806212258 1151.3557754842132 -999837.1812030219
 16370.586050517475 2071.0044514648293 -999863.84815780027
 14240.632906403636 3299.6408466524867 -999893.15266417747
 11481.057075884384 4921.1053497662915 -999921.98098179465
 7932.8244695745507 7015.7591086233033 -999943.92313772521
 3442.077382170391 9614.4454048873667 -999947.85591192276
 -2042.2873255770439 12584.812013048791 -999918.72248152061
 -8169.1270358435022 15366.184784200235 -999848.56139749975
 -13472.280476713569 16557.0789682061 -999772.15444059914
 0 0 0
 -0 -0 -0
 0 -0 -0
 0 0 -0
 43135.897250081805 13546.183577999784 -998977.37475825835
 38750.354018898048 11792.143015518435 -999179.34097263613
 33886.428567879906 9422.2386580362727 -999381.27427803306
 29936.057977920304 7122.7553608509388 -999526.43726357329
 27030.892525731775 5152.9518899421055 -999621.31726773526
 25007.73750445768 3567.49579057254 -999680.89210442163
 23664.214569534022 2337.0026983278458 -999717.23170464323
 22822.59823499155 1403.7478038760362 -999738.54507161363
 22340.480068115761 706.05495214198277 -999750.17101110355
 22107.047725840581 188.30253719297357 -999755.59162377368
 22036.695405635084 -195.49316872921659 -999757.14342935302
 22063.162672694234 -481.13460428256786 -999756.46302605665
 22134.836061472608 -694.99818426267211 -999754.7529319654
 22211.107667270437 -855.1790684165951 -999752.93716245412
 22259.502008603744 -972.66170811836037 -999751.75343658705
 22253.330626059033 -1052.3219550732908 -999751.81014817394
 22169.699871130255 -1093.6838007930223 -999753.62378106324
 21987.679978142532 -1091.4277419183411 -999757.64598959812
 21686.395266472227 -1035.6741968113668 -999764.28603911644
 21242.742926922212 -911.98553465151656 -999773.93152418465
 20628.476648159562 -700.94185864673977 -999786.96462380793
 19806.481944364739 -377.0975208678949 -999803.76128040627
 18726.147465724749 92.740393789386189 -999824.64602564764
 17317.690775940053 751.65577584781943 -999849.75501311372
 15485.356115513761 1654.2046668950513 -999878.7263227955
 13099.697202699566 2865.4094016482077 -999910.08963914274
 9990.554657555811 4453.3734098337009 -999940.17635201896
 5949.2241368001969 6467.484059583855 -999961.38844562869
 774.45916669714165 8884.6833698837963 -999960.23051640205
 -5496.9648710621705 11482.018431440709 -999918.97003204538
 -11549.802997509585 13549.883031068635 -999841.48879738094
 -0 0 -0
 -0 -0 -0
 0 0 -0
 45971.882680046619 12403.654820889829 -998865.72438438225
 42142.55566474596 11527.721319014528 -999045.10240691097
 36689.855810720612 9463.7451303230737 -999281.88816204236
 31787.055010856333 7346.6322161188909 -999467.66337326681
 28087.816017258316 5503.2317769993952 -999590.31059298955
 25504.533571195414 3996.3843052558254 -999666.71830155503
 23792.923462383431 2807.4788611787221 -999712.96623358713
 22720.720849052806 1889.8422461499058 -999740.06488706067
 22102.46930263429 1190.5331350197837 -999755.00172871375
 21797.888447601461 659.82231425026919 -999762.18006770953
 21702.430071361752 254.91929195869022 -999764.44202879735
 21738.022674886168 -58.956438174370149 -999763.69952820602
 21845.78851128164 -308.71195787346505 -999761.30462288205
 21980.712370329093 -514.00244693706645 -999758.2628241576
 22107.817249600354 -687.99010307071887 -999755.35561760142
 22199.37827614705 -838.09104598220529 -999753.21215165441
 22232.806043845849 -966.65504931804628 -999752.35329227033
 22188.915980896109 -1071.5456919783453 -999753.22144888481
 22050.356003055615 -1146.6138850890959 -999756.2038200798
 21799.97119587467 -1182.032869275665 -999761.65362257964
 21418.882855921478 -1164.438089240233 -999769.91130016546
 20884.043935508922 -1076.7568961702805 -999781.32474230893
 20165.027350999317 -897.61856605571904 -999796.26222188072
 19219.745364496212 -600.28757504583461 -999815.10342810431
 17988.687921197448 -151.25685571861689 -999838.17902110389
 16387.129890048713 491.04594589922607 -999865.60139243014
 14294.776233902787 1376.48528512097 -999896.87701316597
 11543.160318521219 2560.6635046072997 -999930.09678290866
 7905.4441130534897 4096.2670162530949 -999960.36148934765
 3109.8117271346327 6011.3287029161556 -999977.09623683256
 -3040.5164692493217 8254.2466593843419 -999961.31058740767
 -10143.455931639814 10507.954498023078 -999893.34090893413
 -16036.020211506438 11477.739599454704 -999805.53486638737
 -0 -0 0
 0 0 -0
 45230.99222253581 10705.853542243045 -998919.18694281613
 40445.434236482994 9528.14885212029 -999136.3176408282
 34745.305583441215 7710.9891578017287 -999366.45150121069
 30049.501744684756 5969.5700581301107 -999530.58566419955
 26650.409906709076 4520.4868594588252 -999634.59366428363
 24355.546127834776 3372.9120398466689 -999697.66971679311
 22892.597886371525 2483.0460277245534 -999734.84656904766
 22024.240297659093 1799.1126314117503 -999755.81820415077
 21567.801800046414 1273.2921115942563 -999766.57708322722
 21388.539584688959 864.7024932397195 -999770.86508061038
 21388.189858292979 539.802419325286 -999771.10077653965
 21494.841277350213 272.01951854459617 -999768.92220344744
 21655.270316592389 41.17630101063439 -999765.49629001867
 21829.474724993233 -167.10129277547779 -999761.69466047687
 21986.846275326443 -361.93329147911652 -999758.194562644
 22103.465143256442 -547.70025400345571 -999755.53854584519
 22160.10667798527 -724.53110342362402 -999754.1721476838
 22140.658262994064 -888.77683436910741 -999754.47052134736
 22030.708588455112 -1033.4522320556414 -999756.76034502243
 21816.109144763082 -1148.618093721693 -999761.34054996283
 21481.304247918808 -1221.6328234866282 -999768.50379528012
 21007.205821540181 -1237.1940076536343 -999778.558809179
 20368.328314026978 -1177.0709109309403 -999791.851189918
 19528.804577457413 -1019.4805428981801 -999808.77494208782
 18436.74214384392 -738.1267514481749 -999829.75636256183
 17016.202682154981 -301.07832596216667 -999855.16861099505
 15156.015172305897 330.16199174110437 -999885.08649602137
 12695.259941960805 1200.6961233159839 -999918.69104633969
 9408.5284985096805 2359.7781131441261 -999952.95441273123
 5006.5807277583672 3850.8326466901199 -999980.05241971882
 -787.39131716835573 5674.338007043687 -999983.59081691701
 -7874.0342465927861 7649.8363346570586 -999939.73797861242
 -14460.425015840558 9064.1023621214645 -999854.35847263783
 0 0 0
 -0 -0 0
 43866.710398742165 9814.7357561404497 -998989.18046234641
 38711.012652204852 8265.6956691705982 -999216.2607636773
 33086.55327573869 6572.5082039839535 -999430.87911482947
 28664.190000833161 5133.2352756321316 -999575.9171304605
 25551.788155717772 3999.1021731713313 -999665.50070703833
 23501.25967058248 3128.3976926376004 -999718.91245578276
 22233.186339791373 2463.8082191390822 -999749.77623115235
 21515.691486271717 1953.5241929985832 -999766.60214426799
 21173.585529770564 1554.9692070562828 -999774.60527189763
 21079.109863928599 1234.1594818623018 -999777.04913531477
 21140.072779562928 964.40392588769021 -999776.05854908458
 21289.793438083459 725.20985711424657 -999773.08363749564
 21479.582235704005 501.48698803903937 -999769.16138565727
 21673.400822739724 282.98038018016729 -999765.0642120284
 21844.136590438226 63.83164542704835 -999761.38634283096
 21970.9801287804 -157.80531470124083 -999758.5964269893
 22037.510200164765 -380.15432153151909 -999757.07230650284
 22030.190757476648 -598.22930006186618 -999757.12691477931
 21937.058236015328 -804.27034878158156 -999759.03027937468
 21746.409668204666 -988.1607506847497 -999763.03052517073
 21445.305249100558 -1137.7741894072194 -999769.37558252225
 21017.660597701211 -1239.1669684760245 -999778.33663678856
 20441.635314841562 -1276.5446234950912 -999790.23298863997
 19685.903887241446 -1231.9274457226206 -999805.45484754723
 18704.236548094399 -1084.4896796610039 -999824.47230365791
 17427.629983542527 -809.56754000484977 -999847.79957429273
 15753.158702683251 -377.39012575370361 -999875.84007594734
 13529.211931633687 248.35525362701915 -999908.44518094626
 10539.376837787229 1111.6195511021504 -999943.84134202497
 6496.8682618799003 2262.4534620999948 -999976.33572356065
 1095.7253345214742 3742.9126777125839 -999992.39496642095
 -5702.7295947719667 5522.2354390416531 -999968.49139906641
 -12398.233432705521 7233.4172921703594 -999896.97543398209
 -0 0 -0
 47482.405003152657 10060.021735431705 -998821.41405648645
 43283.905619049801 9020.8499252796846 -999022.08573233581
 37246.873880638974 7303.1643955005284 -999279.40746116254
 31748.035044997327 5801.0075755921353 -999479.06960670731
 27598.525009084693 4644.3873667888065 -999608.29882675048
 24735.223439107263 3777.8517446413293 -999686.89926277089
 22881.252363353567 3130.1504535079262 -999733.28965700814
 21760.669217043072 2640.7605735379298 -999759.72096240183
 21150.96885352334 2262.2295413828524 -999773.73381883733
 20885.719862881462 1958.1216060395573 -999779.95202223631
 20844.198503448788 1700.5805258289165 -999781.2897902343
 20939.752027172974 1468.4415984102129 -999779.66095750942
 21110.166702772665 1245.9638658681915 -999776.37921478529
 21310.491828140781 1022.0363321325455 -999772.38328520488
 21507.929925893997 789.67575861957425 -999768.36585406098
 21678.250313700097 545.67556328406465 -999764.85020304471
 21803.247601561972 290.29278918601335 -999762.23879686615
 21868.876193618104 26.914153262746691 -999760.8471677897
 21863.789767697566 -238.3355003402437 -999760.93036944757
 21778.080765240349 -497.02922678581598 -999762.70592582645
 21602.046849399387 -738.89435016072571 -999766.37551332731
 21324.805349068487 -952.22503578303997 -999772.1470136611
 20932.536800395574 -1124.1926863197175 -999780.25840376772
 20406.058324197733 -1240.9711268083026 -999791.00454761647
 19717.31092972367 -1287.6177212985299 -999804.76578695327
 18824.18508539976 -1247.6361081129248 -999822.03089350485
 17662.941617846227 -1102.1653981859217 -999843.39059916756
 16137.405739798633 -828.69490472747077 -999869.44017743843
 14104.493531124446 -399.18130952125938 -999900.44700285676
 11357.543523670014 222.55920539779393 -999935.47625459696
 7615.6370965608394 1083.8525326197118 -999970.413229962
 2548.7681628777377 2243.7958966727597 -999994.23456379294
 -4060.5216869620212 3754.8452577217295 -999984.70653341489
 -11709.499112873231 5514.9081349158478 -999916.23320095625
 -18063.87967312273 6548.8845298889 -999815.38714033063
 47441.659769602316 7861.9621176339551 -998843.06999146077
 42364.208459492365 7253.8171748586428 -999075.90100952517
 36078.438215077134 6172.0199499528471 -999329.9017169947
 30753.56287430416 5146.9363873307148 -999513.74548645469
 26833.171237917803 4335.9199405125555 -999630.52210283501
 24162.995350148376 3727.1090354622652 -999701.08448172966
 22454.260721983261 3272.884132051809 -999742.51405293727
 21437.340766234083 2927.2635067437882 -999765.90837517276
 20898.661468973289 2653.0549809613826 -999778.07899957139
 20679.552245424085 2421.5822962085613 -999783.22253282054
 20665.348755393832 2211.0865377918417 -999784.00390141306
 20774.068716656406 2005.3041224666938 -999782.18469041167
 20947.206675173624 1792.4903825658071 -999778.97632963664
 21142.898399062669 1564.8132607815921 -999775.23934469698
 21331.035741967 1317.9844251340178 -999771.59883206838
 21489.808704977622 1050.9924337396585 -999768.51497570553
 21603.227487197288 765.84893211948372 -999766.32971787429
 21659.283949293833 467.28024656374026 -999765.30099217547
 21648.506451311405 162.34874055258501 -999765.63044111175
 21562.72120291715 -139.99810921903327 -999767.48769644147
 21393.860541689271 -429.40855843605124 -999771.03295675281
 21132.646585056733 -694.59702574416053 -999776.43940197083
 20766.934380615177 -923.73208485942973 -999783.91723185196
 20279.417107466146 -1104.688411019534 -999793.74118129781
 19644.279886386539 -1225.0864886002234 -999806.28195207927
 18822.239964295157 -1272.0667026679137 -999822.0367290522
 17753.250157300779 -1231.7130368501155 -999841.63995697198
 16346.061730881034 -1088.0497012835287 -999865.80220234441
 14464.124792104516 -821.51525208056671 -999895.05159626063
 11908.822224857988 -407.00050132922581 -999929.00463173306
 8406.322170772255 187.65672155122812 -999964.64864139864
 3621.0831920561432 998.33156683496816 -999992.94552041637
 -2729.2275564436372 2038.262918837064 -999994.19838377985
 -10429.783443836053 3185.8655685934059 -999940.53317079495
 -17382.372879855306 3936.2253892253516 -999841.16700741579
 47338.140663288803 5931.6257169232722 -998861.30981978506
 41846.491908369513 5683.6679003612426 -999107.88558301399
 35402.538222878553 5163.0256353527284 -999359.79679676238
 30148.844300580698 4605.0217280588322 -999534.81228130509
 26360.000747234953 4130.8532284778321 -999643.97983092477
 23809.933156061114 3761.7174453699799 -999709.42606587696
 22192.060437352928 3479.3554135405843 -999747.67143487325
 21237.254874963695 3256.9348970910733 -999769.15904645319
 20737.006053409597 3069.6675628217504 -999780.25271606306
 20537.925398156331 2897.3230934054154 -999784.87643054104
 20529.782396815648 2724.2101700596031 -999785.53035823093
 20634.151430938953 2538.6320028399641 -999783.87021509756
 20795.432626642578 2332.4050985851745 -999781.03096044331
 20974.24320865827 2100.5473873768879 -999777.80972699006
 21142.689700395604 1841.0769154166485 -999774.77319045446
 21280.99782757476 1554.8465449296145 -999772.32487386058
 21375.068135545469 1245.3375153985571 -999770.75152090413
 21414.642186991045 918.37784891603565 -999770.25845047494
 21391.850266917969 581.76245990046311 -999770.99892655318
 21299.972619182241 244.79758264419146 -999773.09987845016
 21132.261747349345 -82.207841250262305 -999776.68544296047
 20880.662497631933 -388.44523285598058 -999781.8997381184
 20534.213660413257 -663.06154574296238 -999788.93093429226
 20076.837328702873 -895.49855228806928 -999798.03894847655
 19484.106010609936 -1075.6748393169346 -999809.58813996543
 18718.436651514683 -1193.9449817205045 -999824.08183875214
 17722.002176757956 -1240.7968409565319 -999842.1830779328
 16406.549236528237 -1206.232738184671 -999864.67591606162
 14639.492552407351 -1078.8761419186196 -999892.25483752927
 12226.82183562227 -845.11648549771883 -999924.8924823933
 8897.6109453807585 -489.62583573782166 -999960.29560478334
 4308.7427623467574 -1.460322650698358 -999990.71732375363
 -1866.4601696226937 603.26316545279178 -999998.07619814377
 -9542.9677946392076 1225.1953125650034 -999953.71425987349
 -16714.086043120034 1625.8194939458913 -999858.98807717685
 47339.614851003025 4605.4310457387346 -998868.23498930107
 41676.610120612 4559.4831793548165 -999120.74909992318
 35134.609607642938 4388.9813867059265 -999372.9514300985
 29886.063480849505 4176.7798760591231 -999544.58515840373
 26147.226541921682 3981.7605421530775 -999650.17287406605
 23650.511034783642 3821.8539937111805 -999712.98219031084
 22072.977626960703 3691.8995127084759 -999749.5454045817
 21142.212924834857 3578.633859736633 -999770.07367311127
 20651.244947167026 3467.9233455779236 -999780.72575430316
 20449.425962611462 3347.3824051200172 -999785.28495314112
 20429.225662270655 3207.0740778856866 -999786.15784311562
 20514.593253036815 3039.5985092039391 -999784.93302538071
 20652.012211004727 2840.065902865811 -999782.69059696363
 20803.987046856462 2606.074354169768 -999780.17708865146
 20944.391081222679 2337.6915525992777 -999777.90917805431
 21055.128675697302 2037.3876154778175 -999776.24026986875
 21123.691881476963 1709.8861107577982 -999775.40774455178
 21141.304958254048 1361.9005005247086 -999775.57004144113
 21101.448107750024 1001.7650399747732 -999776.8377765913
 20998.597553666335 638.96850279718797 -999779.30095598171
 20827.042324812555 283.63725249962965 -999783.05339604022
 20579.611354000837 -54.000492902900731 -999788.21591398295
 20246.100419331699 -364.10899804744196 -999794.96040060523
 19811.100775490031 -637.6657119604173 -999803.53753550164
 19250.826880995901 -866.75325269178791 -999814.30996120325
 18528.396274881808 -1044.7002072843172 -999827.78873811953
 17586.861148671494 -1166.0259544290714 -999844.65928383626
 16339.163832211814 -1226.1877205982801 -999865.7550836202
 14654.285363101944 -1221.1593024239412 -999891.87449966546
 12339.765507944658 -1147.0986267989892 -999923.20422717941
 9124.3900576123106 -1000.9166997045269 -999957.87094848976
 4657.4933448791926 -783.9250139479293 -999988.84654645773
 -1413.7342949346628 -512.61081925986764 -999998.86929210625
 -9055.9429727265779 -238.45612917103034 -999958.9656758667
 -16281.214598130606 -57.28399424560363 -999867.45060020511
 47487.825262741309 3592.6133910836179 -998865.35608200857
 41758.330646726979 3674.0323390987783 -999120.98532058159
 35165.025985218854 3740.0882409593473 -999374.52073154668
 29896.909052041006 3790.0873418411688 -999545.80188557412
 26156.403690193005 3827.7969710551329 -999650.53419499774