# OOMMF OVF 2.0
#
# Segment count: 1
#
# Begin: Segment
# Begin: Header
#
# Title: Oxs_TimeDriver::Magnetization
# Desc: Oxs vector field output
# Desc:  MIF source file: /mnt/gpfs/work/plgrid/groups/plggspinsym/MF/switching-obrazki/p-ap/Anisotropy.mif
# Desc:  Iteration: 5100, State id: 35773
# Desc:  Stage: 0, Stage iteration: 5100
# Desc:  Stage simulation time: 7.50275e-10 s
# Desc:  Total simulation time: 7.50275e-10 s
# meshunit: m
# meshtype: rectangular
# xbase: 1.0000000000000001e-09
# ybase: 1.0000000000000001e-09
# zbase: 3.4999999999999998e-10
# xnodes: 35
# ynodes: 35
# znodes: 5
# xstepsize: 2.0000000000000001e-09
# ystepsize: 2.0000000000000001e-09
# zstepsize: 6.9999999999999996e-10
# xmin: 0
# ymin: 0
# zmin: 0
# xmax: 7.0000000000000005e-08
# ymax: 7.0000000000000005e-08
# zmax: 3.4999999999999999e-09
# valuedim: 3
# valuelabels: Magnetization_x Magnetization_y Magnetization_z
# valueunits: A/m A/m A/m
#
# End: Header
#
# Begin: Data Text
 -0 0 -0
 0 0 -0
 -0 -0 0
 -0 0 0
 0 0 0
 -0 0 -0
 0 0 0
 0 -0 0
 -0 0 0
 0 0 0
 0 0 0
 -0 -0 0
 0 0 0
 1273.6607474295968 -35096.760294675965 -999383.10732427251
 4091.9701382117246 -34822.442020572984 -999385.13762818766
 6802.9738024685566 -34583.799696267983 -999378.64713331312
 8886.6247688043259 -34516.573128878597 -999364.61518289556
 10564.027942800803 -34621.862720644633 -999344.64922536956
 12159.667684472608 -34875.241105813984 -999317.69725128694
 14006.61132841417 -35254.862554730462 -999280.1956935511
 16384.393023003871 -35720.619975743379 -999227.49610577477
 18974.435319447133 -36120.581378314222 -999167.29050004471
 0 0 0
 -0 0 -0
 -0 0 -0
 -0 0 0
 0 -0 0
 -0 0 0
 -0 -0 0
 0 0 0
 0 -0 0
 0 -0 -0
 0 -0 0
 -0 -0 0
 0 0 -0
 -0 -0 -0
 -0 -0 -0
 -0 -0 -0
 -0 0 -0
 0 0 -0
 0 0 -0
 -0 -0 0
 0 0 0
 0 0 -0
 0 0 0
 -3580.7635717585572 -32663.175125424688 -999460.001762436
 -1067.2535432481977 -31888.47259639444 -999490.86353270058
 802.27261766207482 -30651.335873118362 -999529.81544716319
 2372.9518976306922 -30168.40587946268 -999542.01331709069
 4872.0090806058024 -29094.525880579884 -999564.79134236358
 7217.0661659457819 -28452.009921212804 -999569.10570875462
 9086.135294867403 -28206.532022980053 -999560.82040896348
 10634.86692095376 -28237.132566648983 -999544.6783160757
 12124.381430722782 -28480.928896476151 -999520.80321727972
 13833.997151252905 -28938.238959111364 -999485.46705230523
 16006.900609282535 -29675.298361413115 -999431.41625628609
 18564.633169483564 -30749.357921083225 -999354.70749015012
 20640.905968152365 -31424.297072021636 -999292.98334089341
 22413.787514458611 -33260.024826414949 -999195.37272637698
 24590.761671801418 -34475.566556304344 -999102.96253740659
 -0 0 -0
 0 -0 0
 -0 0 -0
 0 -0 -0
 -0 0 0
 -0 0 0
 -0 0 -0
 -0 0 0
 -0 0 -0
 -0 0 0
 0 -0 -0
 -0 0 -0
 -0 0 0
 -0 0 0
 -0 -0 0
 0 0 -0
 0 -0 -0
 -0 -0 0
 -8620.8511137813275 -29970.580752886337 -999513.60431732424
 -5722.2698148617665 -29005.655855080902 -999562.86823620193
 -2796.8845725229658 -28155.93218292842 -999599.63031185546
 131.93673571558091 -26460.123118225001 -999649.86093995231
 2356.6002548187998 -24811.733410434568 -999689.36391281476
 4172.8179171599359 -23417.235902871966 -999717.07030204288
 6093.9393618384029 -22205.084942263755 -999734.86390430597
 7877.4532732316693 -21455.176068124605 -999738.77645603719
 9386.2265082697268 -21122.034788002682 -999732.84351288062
 10698.545856099205 -21097.199300773504 -999720.18550103717
 11981.762539997162 -21321.312858695572 -999700.87475425203
 13421.870028081075 -21804.679098239729 -999672.15094468452
 15162.576264485933 -22630.152159087887 -999628.91739599046
 17170.016759572391 -23899.405054836727 -999566.91069807881
 19170.211129036576 -25497.750982101417 -999491.05433721771
 21335.564238567698 -27492.840376879718 -999394.28526814876
 24135.341107270349 -29438.886634762988 -999275.15593220934
 27156.305423720343 -30578.209932165675 -999163.40413021459
 29843.460542218927 -32094.58715622409 -999039.19109218975
 -0 0 -0
 -0 -0 -0
 0 0 -0
 -0 0 0
 -0 0 -0
 0 0 -0
 0 -0 -0
 -0 -0 -0
 -0 -0 0
 0 0 0
 0 0 0
 0 0 -0
 -0 0 0
 0 0 0
 -0 -0 -0
 -11151.981890293364 -26985.254938435846 -999573.6237595639
 -7847.6188188938386 -26115.777228654471 -999628.12138245511
 -4002.5975702658902 -24077.324011706063 -999702.08646432566
 -734.8523370044478 -22077.186279389152 -999755.99915080657
 1969.54912908661 -20170.702405040171 -999794.6107279812
 4056.1359322863609 -18564.08877269629 -999819.44488459406
 5718.4689939678674 -17264.431901633052 -999834.60557408142
 7204.5613147424356 -16259.401237665845 -999841.85057820752
 8533.1654779652254 -15613.877452341734 -999841.6834268457
 9695.3250139942629 -15302.202609528211 -999835.90817102068
 10747.834398108416 -15264.082202495509 -999825.7307402459
 11793.812972874144 -15463.116166005135 -999810.88112402428
 12947.479398574875 -15908.518957850576 -999789.61877076479
 14295.746673459644 -16653.718731228786 -999759.11362661223
 15854.082355132045 -17759.175086629515 -999716.58972576773
 17596.515790154248 -19216.009211098983 -999660.49617960071
 19665.021427986874 -21014.818563420213 -999585.74636345392
 22297.339177400045 -23080.501562125042 -999484.92690647871
 25492.201151605313 -25269.923646227591 -999355.58168219589
 29210.480248459473 -27527.654018779773 -999194.16336759925
 32634.606163660934 -28511.828463248472 -999060.5878114826
 -0 -0 -0
 0 -0 0
 -0 0 -0
 -0 -0 -0
 0 -0 -0
 0 -0 -0
 0 0 -0
 0 -0 -0
 -0 0 -0
 0 0 -0
 -0 0 0
 -0 0 0
 -0 0 -0
 -12371.919724855819 -25187.960540807126 -999606.17357343098
 -9421.2669893022703 -23700.046946145325 -999674.72084827011
 -5369.9469012095569 -21176.66570058541 -999761.32776782452
 -1605.0301224823415 -18680.839987390245 -999824.20959670271
 1409.5114724340024 -16583.275869598849 -999861.49452753819
 3743.3035755277228 -14861.568926249862 -999882.55382689403
 5522.5104298416663 -13497.100546879003 -999893.65942353103
 6913.0716539250807 -12444.182949672369 -999898.67074170208
 8070.8201783943196 -11670.350125069297 -999899.32732730953
 9070.5747095673196 -11171.037717326566 -999896.4609352093
 9954.5050635570569 -10923.932805244829 -999890.78179619496
 10775.653489183718 -10896.963878417209 -999882.56383943092
 11603.233040636142 -11070.996564729827 -999871.39073886338
 12510.699097193597 -11452.253949467071 -999856.15379792335
 13559.617832164085 -12070.625656597258 -999835.20480152313
 14790.535242076803 -12961.540245788941 -999806.60056918487
 16248.929284845344 -14142.629686320808 -999767.952238244
 18048.716026208396 -15630.825441559151 -999714.91993758944
 20352.590410103454 -17444.754288642645 -999640.66174371238
 23295.251245042156 -19604.733640260398 -999536.38537490182
 26982.352802188947 -22128.758080073745 -999390.94988052174
 31126.316400734409 -24686.485967833847 -999210.55330589938
 34396.834651569952 -26352.279150206719 -999060.76649498264
 0 -0 -0
 -0 0 -0
 0 0 0
 0 0 -0
 0 -0 0
 -0 0 0
 -0 0 0
 0 -0 0
 -0 -0 -0
 -0 -0 -0
 0 0 0
 -13134.302472358289 -24015.240043063048 -999625.30897543742
 -10327.352881391436 -22252.986464849713 -999699.02989642741
 -6369.7341354044429 -19358.455828374084 -999792.31677133078
 -2486.8501066419831 -16504.395081896524 -999860.70055759652
 777.56268129297928 -14115.867729665712 -999900.06384363992
 3320.6381970705897 -12241.072745350979 -999919.56151482859
 5247.3326281445716 -10793.48546398797 -999927.98049250932
 6700.1982770101313 -9691.8422487168991 -999930.58535924123
 7818.4400559431642 -8871.1624984903192 -999930.08479144017
 8718.2062451297843 -8287.8357016487789 -999927.64971234289
 9476.9223848309957 -7916.882475151061 -999923.75255015667
 10148.393588946703 -7736.6202718139193 -999918.57409207744
 10781.686463187347 -7727.5183466792678 -999912.01647805551
 11428.265836853863 -7879.2481293118635 -999903.6514529183
 12140.225756134934 -8195.8209756540891 -999892.71596363001
 12966.164539551954 -8694.616317903341 -999878.13368640991
 13952.285735570602 -9399.3306543560702 -999858.48313949048
 15157.158687304278 -10333.852517543914 -999831.72185757011
 16674.175983095738 -11529.344395371343 -999794.50192181859
 18630.482850988283 -13032.65272445548 -999741.49412320717
 21168.522098536239 -14913.0962869084 -999664.69039938645
 24421.525057185885 -17256.754435199226 -999552.79677475989
 28371.972917361334 -20064.8408434021 -999396.03427005117
 32568.389895633431 -23041.321833102091 -999203.88183182559
 35769.841507446035 -25104.756197260947 -999044.67850782757
 0 -0 0
 0 0 0
 0 -0 -0
 0 -0 0
 0 -0 -0
 -0 -0 0
 0 -0 -0
 0 -0 0
 0 0 -0
 -14065.601644355744 -22873.16691361308 -999639.42353516875
 -11142.983046351113 -21143.280242207569 -999714.35701875773
 -7135.9610167553974 -18168.810663091441 -999809.46803851391
 -3206.1809044665611 -15144.702870752768 -999880.1720101086
 164.86181694566139 -12558.9373356712 -999921.11984575086
 2857.3445466131157 -10512.95130563133 -999940.65495757665
 4918.4834524491698 -8952.5715042304091 -999947.82863106893
 6464.7554604487868 -7780.6315955578984 -999948.8330453767
 7621.7750706682509 -6911.3233053587401 -999947.06967666105
 8502.0628902324479 -6280.2317992670805 -999944.1352471438
 9196.8512582126477 -5843.365725294314 -999940.6347398503
 9773.7853261007458 -5572.2981926168777 -999936.70930376975
 10283.789905240788 -5447.1087925064539 -999932.2840427683
 10770.082806282931 -5453.9516459607848 -999927.12720867281
 11273.546763574877 -5586.4387049957877 -999920.84629032761
 11834.35323838849 -5847.1996068603066 -999912.87537474325
 12492.601428205084 -6247.4415142574253 -999902.44743378926
 13291.579198206773 -6804.7981240002127 -999888.50810723356
 14286.07931816036 -7542.6586587723223 -999869.49960385961
 15552.478255805798 -8494.687392419175 -999842.96802358306
 17191.856419042007 -9711.848055796796 -999805.04103560525
 19325.783204718024 -11269.143723309158 -999749.72893383051
 22081.896654703902 -13264.562806939564 -999668.16554978478
 25541.978403127083 -15784.732063861356 -999549.12314149237
 29638.146364922217 -18811.298782337402 -999383.66772635072
 33945.509178730295 -21972.400338225703 -999182.12355404627
 37273.392884055313 -24128.662434805639 -999013.76458586287
 0 -0 0
 0 -0 0
 0 0 -0
 0 0 -0
 0 0 -0
 0 -0 0
 -0 0 -0
 -15831.222495708695 -21191.441715026675 -999650.08637639298
 -12459.430501857372 -19849.850374600526 -999725.33529548778
 -8125.4720395722206 -17097.796078342897 -999820.80498127162
 -3977.2400442933508 -14144.043233064629 -999892.05797558511
 -451.2507051134599 -11525.107604760062 -999933.48192142253
 2374.5703210235606 -9396.050151511934 -999953.03672589594
 4557.774177371839 -7745.2077673871972 -999959.61841025751
 6203.207303185799 -6499.5953706381952 -999959.63692499697
 7426.4008890766445 -5574.999413355692 -999956.88304615207
 8334.3494124035187 -4899.1304205363358 -999953.26747853286
 9017.9302459474075 -4417.2880342796843 -999949.58097921172
 9550.1218248896039 -4091.0590197305205 -999946.0277481114
 9987.3400967866946 -3894.6589691020863 -999942.54068386625
 10373.733200434554 -3810.9452902073749 -999938.92931292614
 10746.257428812109 -3829.2590369985928 -999934.92524588888
 11138.50929985792 -3945.0652530753732 -999930.1825981281
 11583.086281680038 -4160.1388990568421 -999924.25980997772
 12113.604016119665 -4482.399871284204 -999916.58086519118
 12767.897456966517 -4925.6026272063136 -999906.35523197229
 13593.147159499415 -5510.1955029460669 -999892.42626185541
 14651.588957670816 -6266.58304259748 -999873.02237733465
 16024.106800220497 -7240.0598369399895 -999845.39281571575
 17810.728170653769 -8495.673321880442 -999805.28179082915
 20125.982927483357 -10118.8718474532 -999746.24442592287
 23082.317880553212 -12202.570283571382 -999659.09383135976
 26755.080596252166 -14807.65453522618 -999532.34016186465
 31100.830236021546 -17862.537359096903 -999356.62709451478
 35733.988595783325 -20934.09145408585 -999142.05490211863
 39482.325212630814 -22844.759192980237 -998959.08973952418
 0 0 0
 0 0 0
 -0 0 0
 0 -0 0
 -0 0 -0
 -18967.265805272898 -18268.859815173317 -999653.18565436755
 -14955.930037953001 -17904.548132742213 -999727.83661997842
 -9909.9766805164018 -15776.212042411315 -999826.43668578006
 -5213.0965335086867 -13156.302529340788 -999899.86265039979
 -1312.3726595523935 -10688.535518095305 -999942.01476209634
 1764.4666987084131 -8601.6796704729713 -999961.44813893479
 4123.0113218156885 -6934.9438570741941 -999967.45313602046
 5895.8422829472383 -5649.8702072570932 -999966.65844937845
 7209.0977818555702 -4682.2418373109458 -999963.05207769992
 8173.2450762558847 -3966.6395114793972 -999958.73106639215
 8880.7736366380832 -3447.4510193054748 -999954.62244098063
 9406.7641114154103 -3081.8712985018442 -999951.00622893102
 9810.7977230499582 -2839.0374060996451 -999947.84269713005
 10139.650906071211 -2697.7234308614761 -999944.95336883084
 10430.662057587262 -2643.9347732852198 -999942.10377299087
 10715.149449276414 -2669.2997355102266 -999939.0283468297
 11021.263444644977 -2770.3578978912842 -999935.42634972266
 11376.232452028435 -2948.343936362724 -999930.94191710593
 11808.502368927395 -3209.1490448982013 -999925.1275141607
 12350.421476129986 -3563.5803826077208 -999917.38057912502
 13041.756909055406 -4028.4389993221566 -999906.83778837824
 13933.597934765954 -4628.8315999721053 -999892.20857380982
 15091.822191429917 -5401.4056329423438 -999871.5226068449
 16599.705104687408 -6397.4807891758446 -999841.7484932252
 18559.089741784283 -7683.8787037444772 -999798.23874420929
 21088.626956802786 -9337.369158621088 -999734.00629881176
 24316.360214909197 -11426.325708440927 -999639.01169707428
 28353.863796952519 -13965.113140291332 -999500.39220740821
 33207.657847483264 -16807.284859718402 -999307.14329275582
 38513.323777518548 -19400.563905797244 -999069.73831246898
 42943.400867015647 -20446.070935886513 -998868.27084719215
 0 0 0
 -0 -0 -0
 0 -0 -0
 0 0 -0
 -17936.790178949359 -15756.864184057928 -999714.95576947392
 -12902.418284229065 -14241.482170925347 -999815.33684375638
 -7389.9357157676041 -12068.999238729224 -999899.85903964017
 -2782.1063849441339 -9874.3112751653152 -999947.37754589075
 789.63225393779851 -7933.7423410453248 -999968.21560156078
 3476.6533762947156 -6330.5984465982083 -999973.91786216572
 5466.5665807798523 -5059.8358147389408 -999972.25697083503
 6924.1105809269293 -4080.7559499746935 -999967.70154017466
 7982.241039645658 -3342.5731589723009 -999962.55481525999
 8745.7567102319972 -2796.6704692865105 -999957.84429837426
 9296.6860979277699 -2401.9871205911536 -999953.89998012863
 9699.0659255554856 -2126.485997400177 -999950.70187358477
 10002.891534008579 -1946.5794321765875 -999948.07514664135
 10247.484882885856 -1845.7277439754844 -999945.78970195667
 10464.515880544526 -1812.9619253945677 -999943.60194785148
 10680.676255356339 -1841.7746025025754 -999941.26378554921
 10919.942402611125 -1929.4862794759481 -999938.51408005133
 11205.521036131075 -2076.9819493926411 -999935.05911348597
 11561.755557628634 -2288.7257942895199 -999930.5413590807
 12016.3174202106 -2573.1217832838229 -999924.49072914745
 12602.861889937089 -2943.4207451257193 -999916.24856609909
 13364.092687708448 -3419.2993921494799 -999904.85018240684
 14355.107776901565 -4028.9233050080652 -999888.84315093549
 15647.090597331107 -4810.903999320808 -999866.00290166319
 17331.539569779055 -5814.9932955726345 -999832.88783131831
 19525.087452802607 -7099.5487819354767 -999784.16039015795
 22373.812864976124 -8722.5235202030071 -999711.62346014683
 26049.593982761235 -10719.208049799487 -999603.17988295655
 30707.276081360429 -13051.207150320211 -999443.20958600857
 36275.112176078561 -15490.097143535151 -999221.78375328495
 41500.544635322993 -17369.453044720205 -998987.49086057069
 -0 0 -0
 -0 -0 -0
 0 0 -0
 -21374.227993266755 -13304.288173465533 -999683.01890843851
 -16920.544588174762 -12931.069051725637 -999773.21559642674
 -10800.630605469751 -11104.640519159469 -999880.0094698685
 -5224.2688092068747 -9120.1869846163754 -999944.76307682844
 -849.38363469104218 -7332.8457957496803 -999972.75358880509
 2405.7658452903547 -5828.5210212423062 -999980.12011909659
 4775.9153230193624 -4611.4476813383008 -999977.96234872588
 6482.9042455493609 -3653.8957407244257 -999972.31011586485
 7702.8911080365988 -2916.9111332618577 -999966.07797365729
 8568.8537304907895 -2360.5171715549486 -999960.50057211169
 9180.0700177757972 -1948.696728768397 -999955.96347815648
 9610.9562702248022 -1651.4982898818362 -999952.44990597968
 9917.84830504622 -1445.4491352673356 -999949.77221948269
 10143.975552130647 -1313.0393780499403 -999947.68647544226
 10323.166827636152 -1241.8139655994287 -999945.94360131468
 10482.728326203793 -1223.437951230293 -999944.30625231238
 10645.754749382226 -1252.9553762853172 -999942.54735391727
 10833.035424839973 -1328.3195679412925 -999940.43868152937
 11064.722081926477 -1450.1827955013882 -999937.73250893434
 11361.965202011099 -1621.9296996777316 -999934.13537632441
 11748.732585429823 -1849.992481799065 -999929.26990385354
 12253.9772840275 -2144.5234926349131 -999922.61753583315
 12914.272784031346 -2520.4531999595838 -999913.43068994069
 13777.075984508403 -2998.8169363152592 -999900.59469644271
 14904.949418561802 -3608.0361606108481 -999882.4053646978
 16381.276993191061 -4384.5901704869657 -999856.20422794251
 18318.061852092098 -5372.195632774652 -999817.77745950571
 20865.655626955038 -6618.111766100169 -999760.38379799237
 24220.359696379946 -8164.0163226684399 -999673.30814304587
 28610.974001050185 -10026.008189147771 -999540.34001960244
 34188.710736527471 -12147.53973685886 -999341.56790184369
 40541.522583837352 -14235.396380741244 -999076.44273922662
 45668.49753206782 -15101.442690085385 -998842.49747487321
 -0 -0 0
 0 0 -0
 -20621.078675256893 -11171.540456946917 -999724.9460717123
 -15180.393864290618 -10183.403192985417 -999832.91301173635
 -8798.0354596935558 -8507.5800068898043 -999925.10502260935
 -3412.1413432746926 -6839.9881103771559 -999970.78550030827
 673.42109537012266 -5411.7180662672263 -999985.12979523838
 3641.4452420550078 -4250.1566517850324 -999984.33789984137
 5755.6756393922769 -3328.9828354145016 -999977.89479128772
 7245.6620659756527 -2611.240681725279 -999970.3404618199
 8287.269052246962 -2060.7170199661587 -999963.53664372128
 9009.6044231221113 -1645.2376316089308 -999958.0592311233
 9506.5050031249684 -1337.675769437659 -999953.91743127909
 9846.5497804561637 -1116.0908372583394 -999950.89869386284
 10080.566235401522 -963.40624404040659 -999948.72570186458
 10246.990945130969 -866.83220548514919 -999947.1224912334
 10375.686745571982 -817.19661920432236 -999945.83719031687
 10490.726196546917 -808.31648568060473 -999944.64411202702
 10612.499624034846 -836.50003880287466 -999943.33595430048
 10759.397069849583 -900.22044979315251 -999941.71079010144
 10949.264464972386 -999.96856301915727 -999939.55500847602
 11200.820791410206 -1138.2891488872438 -999936.62094725401
 11535.216584614531 -1320.0218263049803 -999932.59588870488
 11977.908925859527 -1552.7759689857294 -999927.05663190968
 12561.047787672711 -1847.6427607401331 -999919.39989916398
 13326.652570826709 -2220.0850850936527 -999908.7316117764
 14331.020846298916 -2690.8664202045238 -999893.68488825427
 15651.008530708717 -3286.7988262004301 -999872.11326521565
 17392.894262713318 -4041.0088169112996 -999840.56602885807
 19703.946409230415 -4992.2651836456571 -999793.394549213
 22783.720431454327 -6182.2905391768572 -999721.30184716498
 26880.406403831112 -7647.1489160521842 -999609.40615073277
 32215.859646402445 -9385.413032671262 -999436.86764570069
 38643.395194453151 -11232.202386710291 -999189.93471581233
 44439.68602499285 -12527.473094453859 -998933.51967178844
 0 0 0
 -0 -0 0
 -19183.121845497582 -9616.6242520604483 -999769.7376767589
 -13369.497131752601 -8139.2135789780768 -999877.49737093295
 -7055.286037947224 -6510.6147694772453 -999953.91635527171
 -1936.6362387865599 -5100.3816900181564 -999985.11766260536
 1863.927318894315 -3963.2987145309289 -999990.40897313063
 4582.9299613093681 -3069.891449353041 -999984.78614399862
 6491.3046058094606 -2376.0492228249814 -999976.10839189833
 7814.3883026240474 -1841.8003882995522 -999967.77103403944
 8722.0085291304131 -1434.3919716738596 -999960.9337803598
 9337.4514824575381 -1127.6421567801542 -999955.76923330908
 9749.2687941191671 -900.83779674229265 -999952.06897593045
 10021.341283856556 -737.80433523043689 -999949.5129073445
 10200.420148119849 -626.15394635124244 -999947.77831646637
 10321.50057002273 -556.64828580808557 -999946.57695732394
 10411.599550760069 -522.64984794379484 -999945.66123961494
 10492.441553301975 -519.66783942504867 -999944.81778525515
 10582.430232782055 -545.01418186474723 -999943.85598888004
 10698.181089670628 -597.58011846541251 -999942.59426197805
 10855.826493313183 -677.73782152216211 -999940.84410158603
 11072.273515781599 -787.37252354111274 -999938.39050398546
 11366.585747895551 -930.05697433644912 -999934.96574650309
 11761.671239178189 -1111.3816987318048 -999930.21152497502
 12286.502061925888 -1339.4441223269894 -999923.62096138415
 12979.183995340245 -1625.4795092545626 -999914.44563981565
 13891.34260535917 -1984.6003186182832 -999901.54113402392
 15094.459902527838 -2436.6139442856461 -999883.10326394532
 16688.848130633753 -3006.9201247974729 -999856.21005194332
 18815.438243913432 -3727.5025531760712 -999816.02558090957
 21668.086383774636 -4637.7448350564291 -999754.46253333159
 25495.141371754802 -5783.0279060515213 -999658.21877013147
 30547.633944060683 -7201.4105413145899 -999507.36953092809
 36810.23747968737 -8861.8731982160152 -999282.97975103534
 42811.349684874491 -10423.503592399084 -999028.79783869034
 -0 0 -0
 -23120.968145854771 -8401.0075027119183 -999697.3761618752
 -18420.493420470881 -7864.5049583696364 -999799.39737124555
 -11771.399853056142 -6312.2185052887044 -999910.79104240157
 -5603.9258049089622 -4870.7850277003508 -999972.43535448879
 -765.942627498354 -3726.8276789408146 -999992.76201747742
 2778.8646261881581 -2847.0786307376052 -999992.08599601395
 5291.1073046973261 -2175.0769943719924 -999983.63647789694
 7037.0787063210537 -1662.4857951134652 -999973.85749041568
 8233.0426381166762 -1272.2266829263058 -999965.29862200026
 9040.8415735414292 -976.56590637638578 -999958.65389658615
 9577.5372683166606 -754.73743180123188 -999953.84951070766
 9926.8602458634996 -591.08751037829597 -999950.55280809477
 10148.877655378872 -473.78745990148803 -999948.38657191652
 10287.26989939423 -393.9531114635538 -999947.00703535439
 10374.539652987154 -345.02144989346539 -999946.12349225464
 10435.671368678648 -322.29144097378185 -999945.49496025639
 10490.711302771328 -322.58253703079771 -999944.91894147301
 10556.634429378408 -343.99109942692093 -999944.21801400895
 10648.772149909097 -385.73716046497435 -999943.22581761738
 10782.011397135397 -448.09939815130235 -999941.77202333219
 10971.941576165595 -532.44066171635086 -999939.66468232032
 11236.116811559938 -641.33053359370103 -999936.66718154901
 11595.617857927453 -778.773497694252 -999932.46529869805
 12077.14698525046 -950.55029777486072 -999926.61679486651
 12715.978832048417 -1164.6804446759493 -999918.4703773628
 13560.220347137209 -1432.0252442283288 -999907.03054225852
 14676.974705218116 -1767.0863339399484 -999890.72593928536
 16161.048144367773 -2189.1240607583841 -999867.00528556388
 18146.451998258977 -2723.80969087325 -999831.62939599121
 20819.169186950952 -3405.6368764016479 -999777.45715325652
 24423.637314114014 -4280.8844286294843 -999692.53271636332
 29236.10987084658 -5408.6523227477537 -999557.9004538313
 35413.552592681568 -6844.9800183992866 -999349.3015664306
 42427.56346985163 -8504.0329713276587 -999063.35298680339
 48076.822653439209 -9478.1895351441108 -998798.66992636991
 -23012.072387292072 -5769.0496608170397 -999718.54168583523
 -17390.635743661442 -5332.7763431096573 -999834.54995559424
 -10488.404046911504 -4366.0164864857506 -999935.46355781809
 -4496.0285927279674 -3386.5314908038795 -999984.15844020026
 108.45247036657892 -2579.0162064367851 -999996.66845118464
 3451.6268363122708 -1953.4354885057214 -999992.13515005959
 5805.3707575109838 -1477.5609208984799 -999982.05708107224
 7429.6646418698447 -1117.1495037412494 -999971.77563184034
 8532.2600680310898 -844.56407508984023 -999963.24294928683
 9267.8533129919688 -639.07223971507744 -999956.84830978641
 9748.1267041703904 -485.40769276638582 -999952.36806816538
 10052.843439169723 -372.32674478176176 -999949.39957558992
 10239.104205516856 -291.51677031735034 -999947.53650531126
 10348.317450946408 -236.83675524967566 -999946.42668209272
 10411.2054004246 -203.79709697425184 -999945.78116458573
 10451.32770435792 -189.19931140707575 -999945.36548395304
 10487.561419973526 -190.88472699971237 -999944.98579596053
 10535.885063635509 -207.5640389419132 -999944.47448000615
 10610.731069703561 -238.71371668064421 -999943.67611477396
 10726.111824546886 -284.53361296722647 -999942.43312590255
 10896.691405041338 -345.96541808553729 -999940.56944618106
 11138.967489088489 -424.77555200036852 -999937.86955440755
 11472.746252611661 -523.70896410547653 -999934.0487363874
 11923.141618166906 -646.72367258620068 -999928.70767992479
 12523.413314644546 -799.32311263637382 -999921.2595007231
 13319.074404546342 -989.02075915467503 -999910.80806987174
 14373.823840534365 -1226.0047512371441 -999895.93963599578
 15777.905398405248 -1524.1179865867152 -999874.35949003207
 17659.195213338939 -1902.2997282366671 -999842.25459827483
 20195.910196291115 -2386.5182477809849 -999793.19348653092
 23625.059217702994 -3011.4863905665434 -999716.3535356815
 28225.713367554428 -3818.2286823397508 -999594.28281409352
 34209.215673482213 -4830.0356352260642 -999403.02196799859
 41309.433390333768 -5942.2574728194932 -999128.73058935499
 47518.333902842605 -6666.3336821047897 -998848.12055604171
 -22849.290651951873 -3330.8914547053337 -999733.37199416303
 -16798.274214150548 -3113.6269013902456 -999854.05100491794
 -9715.0285366231692 -2632.0828270514644 -999949.34389724163
 -3782.3653933854011 -2087.0328455256076 -999990.66895943228
 690.14318041285162 -1603.0856792583049 -999998.47690818796
 3904.2423901454345 -1214.1337877320711 -999991.64135031868
 6151.7961429779043 -913.96054825215629 -999980.65985314536
 7693.4586803330367 -685.83877975091582 -999970.16971442825
 8732.6762539975407 -513.48607776115239 -999961.73761674052
 9419.5149344544061 -383.8478152964779 -999955.56171224662
 9861.8866361747841 -287.11706927505423 -999951.32919345808
 10136.721066079332 -216.07747747861353 -999948.59877723327
 10299.023514752431 -165.44173269405633 -999946.94996468467
 10388.634593286119 -131.34329731645408 -999946.02805362723
 10435.076073437569 -110.97821080663908 -999945.54695302213
 10460.96257918415 -102.35940178099671 -999945.27739495307
 10484.402037396694 -104.15005910017328 -999945.0317225859
 10520.718706306016 -115.55401929942225 -999944.64903072093
 10583.753986668895 -136.25087707442046 -999943.9812245724
 10686.944310098284 -166.37008523642649 -999942.8791397576
 10844.344350002442 -206.50277191825097 -999941.17704604194
 11071.757019737754 -257.75310001115008 -999938.67299941706
 11388.150305118757 -321.83386607814509 -999935.10112186312
 11817.587503796425 -401.21477631601874 -999930.08938239934
 12391.975415794028 -499.33891614108836 -999923.09184553835
 13155.04296328483 -620.93554667125125 -999913.27588130417
 14168.082526558745 -772.47525482174535 -999899.32929245511
 15518.04897572663 -962.82351676852568 -999879.12425795884
 17328.405876718309 -1204.0991642559322 -999849.12686613586
 19772.015702730783 -1512.4693801125356 -999803.37058414891
 23081.562336891831 -1907.6311032207955 -999731.76523688703
 27540.823082672348 -2406.7710638859339 -999617.78221326915
 33400.572616344922 -3001.6048642401638 -999437.53787674953
 40520.698708441378 -3600.3028498305675 -999172.21278194559
 46983.759535975587 -3970.8195373260669 -998887.7609281576
 -22735.87697695144 -1495.0486030642464 -999740.38866485888
 -16518.840382569459 -1410.3057242168372 -999862.56003021705
 -9332.9945285202884 -1217.8423495298518 -999955.70505555009
 -3403.9252298280021 -983.51097450308839 -999993.72297989577
 1012.8343652303896 -763.15868396033682 -999999.19587736251
 4161.1086329826448 -579.88150126759058 -999991.17441724916
 6350.2392475966626 -436.00133043946789 -999979.74197697523
 7844.9516653870414 -325.90158267141345 -999969.17478566605
 8847.7399632100096 -242.56997073878168 -999960.82856147562
 9506.493541527967 -179.91172082529039 -999954.79608446185
 9927.0549254052748 -133.20575506283933 -999950.716703946
 10184.712545665978 -98.947184063789337 -999948.12957463786
 10333.240827523787 -74.570441765816284 -999946.60786126461
 10411.563647008394 -58.20764018932703 -999945.79650813807
 10448.508685039125 -48.510466296621381 -999945.41166655382
 10466.149941924738 -44.526815630104203 -999945.22736135696
 10482.158293441174 -45.617729534125552 -999945.05962904484
 10511.48721321941 -51.40354601175207 -999944.75147092075
 10567.643135191924 -61.732461303972073 -999944.15899472637
 10663.735851748701 -76.668170314325963 -999943.13781318371
 10813.474390754529 -96.495581291967355 -999941.52802061546
 11032.267742531003 -121.74542853396936 -999939.13527099637
 11338.608056535573 -153.24021023421113 -999935.70417541277
 11755.959134315335 -192.16622911167894 -999930.87785955134
 12315.447992098016 -240.18029486641075 -999924.13314920035
 13059.762182221042 -299.56558331259242 -999914.6727957367
 14048.777304869562 -373.45671606455312 -999901.24131652107
 15367.52524805145 -466.14788505536359 -999881.80395179696
 17136.995087465973 -583.44122963407324 -999852.98069051304
 19527.421156451648 -732.77980120298366 -999809.0531980301
 22770.549651970399 -922.29156563971094 -999740.29199928453
 27156.466076038956 -1156.4525451811076 -999630.5262284521
 32961.316606551918 -1424.1592450273424 -999455.61351067899