# OOMMF OVF 2.0
#
# Segment count: 1
#
# Begin: Segment
# Begin: Header
#
# Title: Oxs_TimeDriver::Magnetization
# Desc: Oxs vector field output
# Desc:  MIF source file: /mnt/gpfs/work/plgrid/groups/plggspinsym/MF/switching-obrazki/p-ap/Anisotropy.mif
# Desc:  Iteration: 14800, State id: 103750
# Desc:  Stage: 0, Stage iteration: 14800
# Desc:  Stage simulation time: 2.17792e-09 s
# Desc:  Total simulation time: 2.17792e-09 s
# meshunit: m
# meshtype: rectangular
# xbase: 1.0000000000000001e-09
# ybase: 1.0000000000000001e-09
# zbase: 3.4999999999999998e-10
# xnodes: 35
# ynodes: 35
# znodes: 5
# xstepsize: 2.0000000000000001e-09
# ystepsize: 2.0000000000000001e-09
# zstepsize: 6.9999999999999996e-10
# xmin: 0
# ymin: 0
# zmin: 0
# xmax: 7.0000000000000005e-08
# ymax: 7.0000000000000005e-08
# zmax: 3.4999999999999999e-09
# valuedim: 3
# valuelabels: Magnetization_x Magnetization_y Magnetization_z
# valueunits: A/m A/m A/m
#
# End: Header
#
# Begin: Data Text
 -0 0 -0
 0 0 -0
 -0 -0 0
 -0 0 0
 0 0 0
 -0 0 -0
 0 0 0
 0 -0 0
 -0 0 0
 0 0 0
 0 0 0
 -0 -0 0
 0 0 0
 -4395.9194064083913 -33295.89746223636 -999435.87043129338
 -1704.1938820627602 -33556.919032777347 -999435.35504215583
 1014.0762941945286 -33904.235209668106 -999424.57168318483
 3101.3736361226556 -34384.716897641105 -999403.85867047659
 4719.0455939873318 -34982.271214169981 -999376.79146024794
 6177.9863451736001 -35656.631159428645 -999345.00405969878
 7817.8323810941529 -36357.773248367506 -999308.25765690603
 9956.2840894049259 -37007.119349168053 -999265.40294588776
 12420.01817657723 -37436.088877584218 -999221.83843130793
 0 0 0
 -0 0 -0
 -0 0 -0
 -0 0 0
 0 -0 0
 -0 0 0
 -0 -0 0
 0 0 0
 0 -0 0
 0 -0 -0
 0 -0 0
 -0 -0 0
 0 0 -0
 -0 -0 -0
 -0 -0 -0
 -0 -0 -0
 -0 0 -0
 0 0 -0
 0 0 -0
 -0 -0 0
 0 0 0
 0 0 -0
 0 0 0
 -10090.609187980375 -28385.7567415831 -999546.11120269145
 -7610.1198929363154 -28558.982504131211 -999563.13987338683
 -5613.9143802449444 -28421.98675611697 -999580.24922172539
 -3867.4894013753305 -28772.39644210424 -999578.50703619502
 -1296.5442559168976 -28350.502152397035 -999597.20287758869
 1138.7309131409554 -28294.047043732793 -999598.99469426973
 3051.268153193816 -28591.512727696689 -999586.52209931239
 4570.9115107915013 -29113.410117919619 -999565.66373563791
 5962.9812937243314 -29777.76309844288 -999538.75746713486
 7529.731401120247 -30556.752525854168 -999504.67133480718
 9567.2546540611038 -31489.716031689582 -999458.28598427633
 12104.073069432441 -32671.974966662026 -999392.83240721095
 14285.710914287854 -33645.571458388607 -999331.72369584639
 15957.839552761126 -35695.199418739874 -999235.30767045298
 18000.339472663578 -36981.881611947392 -999153.80608358234
 -0 0 -0
 0 -0 0
 -0 0 -0
 0 -0 -0
 -0 0 0
 -0 0 0
 -0 0 -0
 -0 0 0
 -0 0 -0
 -0 0 0
 0 -0 -0
 -0 0 -0
 -0 0 0
 -0 0 0
 -0 -0 0
 0 0 -0
 0 -0 -0
 -0 -0 0
 -16142.573392930022 -22968.400288624827 -999605.85728197661
 -13421.44994232743 -23329.248904581054 -999637.73979726981
 -10230.802909872162 -23882.026789985932 -999662.43275828951
 -7086.3534884006376 -23306.914135193012 -999703.24164110457
 -4619.1411349262835 -22651.799870502979 -999732.74403602595
 -2591.5156431968021 -22059.548637015505 -999753.2997497943
 -497.07273339708559 -21500.122314508171 -999768.72208484251
 1428.443303346497 -21337.5321513118 -999771.3084858061
 3017.3416005465087 -21553.858680824706 -999763.13536038739
 4340.5579180203049 -22034.895636207111 -999747.77965808043
 5580.2327298175614 -22705.344181798726 -999726.62680768268
 6952.5881577629561 -23558.269306036866 -999698.2892179084
 8645.5857712515517 -24671.809820594393 -999658.21941644046
 10666.484791373798 -26186.705761936457 -999600.16133628809
 12699.191736581186 -28068.124169733906 -999525.34281769465
 14803.52387561015 -30281.11327562217 -999431.79350051365
 17540.092322147389 -32318.346045490936 -999323.70614842046
 20561.01039217526 -33590.112764346748 -999224.17363479128
 23194.426576243732 -35170.247364749965 -999112.14199212962
 -0 0 -0
 -0 -0 -0
 0 0 -0
 -0 0 0
 -0 0 -0
 0 0 -0
 0 -0 -0
 -0 -0 -0
 -0 -0 0
 0 0 0
 0 0 0
 0 0 -0
 -0 0 0
 0 0 0
 -0 -0 -0
 -19702.361915229994 -18137.045197676107 -999641.36795475741
 -16561.710748977428 -18793.506722998121 -999686.20768825256
 -12659.268622587339 -18199.759423316889 -999754.22563491808
 -9070.629973991945 -17455.079752803893 -999806.50321084552
 -5989.188803107997 -16587.352228391086 -999844.48258893355
 -3541.5965114217993 -15880.429441754181 -999867.62576597906
 -1575.3580522688608 -15353.798355339493 -999880.88246704196
 153.90855141433923 -15024.052865679512 -999887.12070295576
 1664.4165388054873 -14998.020975510817 -999886.13805993111
 2940.073388437821 -15268.884282662402 -999879.1012623643
 4042.5251618856291 -15775.227159018044 -999867.39130666549
 5093.697468919132 -16472.228936777017 -999851.34891140158
 6235.7655356959731 -17362.112407331624 -999829.82166013564
 7585.2372721630991 -18501.197272777576 -999800.06495048734
 9171.8785230543308 -19968.407212638907 -999758.54052753584
 10946.151014221388 -21767.484367669527 -999703.13513676496
 13018.290115136844 -23842.10389401875 -999630.97101099498
 15650.521765551439 -26087.327113981846 -999537.14915080287
 18839.129035916285 -28390.973253758832 -999419.35135100922
 22536.796866176013 -30648.27964431365 -999276.12587405334
 26057.534932886978 -31562.546698428418 -999162.05418296938
 -0 -0 -0
 0 -0 0
 -0 0 -0
 -0 -0 -0
 0 -0 -0
 0 -0 -0
 0 0 -0
 0 -0 -0
 -0 0 -0
 0 0 -0
 -0 0 0
 -0 0 0
 -0 0 -0
 -21879.358419150554 -13428.970169353262 -999670.42390747822
 -19347.775949887207 -13926.334447093581 -999715.82000819652
 -15361.006520234543 -13073.201193728157 -999796.54474759696
 -11289.808734742439 -11930.543943123883 -999865.09206990246
 -7793.1344135554018 -10972.736894401127 -999909.42894897156
 -4954.798295318782 -10233.802863135137 -999935.35753708147
 -2719.1678054723066 -9742.5917098713235 -999948.842708076
 -948.60336001175256 -9475.404195731473 -999954.65740552102
 508.52765360022988 -9419.529462564291 -999955.50594230404
 1729.5521217445839 -9590.8628275148676 -999952.51087223249
 2761.4202743924625 -9978.2304558372653 -999946.4033012162
 3669.1890300493023 -10551.245975066809 -999937.60218337411
 4542.0785392411708 -11288.430526891581 -999925.96768899984
 5477.8785802021757 -12194.592139807713 -999910.63839165366
 6560.1105495718484 -13302.173316293545 -999890.00251759717
 7839.7231110398216 -14651.247008367327 -999861.93031970283
 9356.3649078879625 -16254.36947140035 -999824.1114860141
 11215.146150484568 -18102.477788329776 -999773.23468611948
 13579.724915862274 -20190.242864775872 -999703.92875304376
 16576.915871292924 -22522.856440813513 -999608.88691424835
 20318.073413342605 -25088.111413698723 -999478.74542606645
 24574.784611329091 -27574.277367233703 -999317.63678471209
 28059.906385709168 -29125.199109848483 -999181.84752848488
 0 -0 -0
 -0 0 -0
 0 0 0
 0 0 -0
 0 -0 0
 -0 0 0
 -0 0 0
 0 -0 0
 -0 -0 -0
 -0 -0 -0
 0 0 0
 -23114.173523252626 -8528.1935686641682 -999696.4563790313
 -21241.393663978793 -9191.2753463289973 -999732.12594810606
 -17695.273332553374 -8319.8020389716894 -999808.81082120829
 -13639.795088794999 -7021.1534597476302 -999882.32277305052
 -9879.5571950659669 -5891.4327883902652 -999933.84049612458
 -6728.2394478948027 -5101.1604453215568 -999964.35384269722
 -4203.7508628253954 -4624.1462311659552 -999980.47268450016
 -2220.9361967321065 -4411.4238226366506 -999987.80331675382
 -661.86006339958863 -4414.7867775298955 -999990.03574983939
 586.64184359924968 -4602.8933404343325 -999989.23455417447
 1606.914906232272 -4961.4077607517793 -999986.40103629173
 2462.4573526106706 -5475.5918133917576 -999981.9769366245
 3217.4879062800605 -6129.0900313207776 -999976.04072645691
 3943.6337024888953 -6912.9344757889003 -999968.3290435524
 4715.3473966013707 -7832.4805895276413 -999958.20800008648
 5601.2064095879059 -8906.6533975625807 -999944.64747405541
 6660.2759974646742 -10158.289558984212 -999926.22221685597
 7955.4333383476242 -11602.776446104379 -999901.03843287448
 9579.8421750196649 -13252.738493219493 -999866.28683356068
 11658.433352448825 -15132.94903691802 -999817.52074326668
 14327.056245459886 -17289.571010715288 -999747.87131236494
 17717.261324986957 -19785.04472728831 -999647.26311648614
 21825.107304441706 -22619.829281799721 -999505.8819308728
 26224.447651206541 -25532.234383027695 -999329.96720442607
 29694.987225076999 -27494.581746049826 -999180.7923035312
 0 -0 0
 0 0 0
 0 -0 -0
 0 -0 0
 0 -0 -0
 -0 -0 0
 0 -0 -0
 0 -0 0
 0 0 -0
 -23456.696078573736 -3161.4120259696729 -999719.85520098545
 -22383.771031184668 -4210.1644164351537 -999740.5870074546
 -19476.199843862287 -3600.9764525390997 -999803.83606397
 -15756.26431709029 -2377.0410860524958 -999873.03684540128
 -12033.718850829466 -1205.6311799233583 -999926.86535770062
 -8726.0236147458672 -352.37849073263732 -999961.86544351489
 -5974.6742046287827 142.51720090500379 -999982.14131903159
 -3765.8795131708443 331.10420190685454 -999992.85423521884
 -2022.5496737124415 278.39968628879541 -999997.91589104431
 -650.57200620859726 38.790722994037822 -999999.78762564983
 438.48766574045851 -350.41624753315921 -999999.84246849781
 1317.6361615278429 -866.68801982553168 -999998.7563426377
 2048.6745056417453 -1495.201446478017 -999996.78364752966
 2690.6505039123863 -2226.3713729583942 -999993.90181659383
 3304.3261525863354 -3057.5492333219204 -999989.8663593363
 3951.6419142022578 -3994.5796024108258 -999984.21380538901
 4693.2213275306012 -5050.3902504806156 -999976.23333351698
 5588.6075688158062 -6240.7067325744838 -999964.90990680258
 6703.0933419249559 -7580.8807569750925 -999948.79808248079
 8118.0998353008199 -9089.7258238919385 -999925.73391202919
 9934.391529553357 -10798.731486526842 -999892.34183646948
 12267.725031011914 -12760.899049513115 -999843.3189145244
 15237.46303624038 -15053.080693242495 -999770.58592552214
 18918.210331487262 -17750.729081957474 -999663.44983444933
 23240.875020707012 -20842.386435595661 -999512.60955324688
 27800.170962639761 -23988.405504336144 -999325.62605779676
 31426.285370264213 -26090.534232673755 -999165.48810058506
 0 -0 0
 0 -0 0
 0 0 -0
 0 0 -0
 0 0 -0
 0 -0 0
 -0 0 -0
 -22685.053155054262 2704.792869188027 -999739.00216951
 -22687.300098669377 1144.1852999301072 -999741.95533359109
 -20675.391931519178 1297.5428164371831 -999785.3992488177
 -17516.946023669367 2255.5099983158311 -999844.02247383131
 -14056.004331826194 3324.0957431053762 -999895.68412395602
 -10782.584031852035 4167.1434609882663 -999933.18316624139
 -7922.9157580793399 4678.3216493340378 -999957.6694602808
 -5541.0261652443578 4868.5713696275734 -999972.79665091645
 -3612.6307637311693 4794.3736450990573 -999981.981277821
 -2075.3286697124463 4517.2520548210732 -999987.64364605315
 -856.70994775834231 4087.8982489878249 -999991.27752994478
 111.94135650913675 3542.118814098324 -999993.72041200299
 891.04477430051895 2902.3699975037598 -999995.39113318315
 1534.7056780571015 2181.3577441291959 -999996.44317211153
 2094.9599719732591 1384.4320010380297 -999996.84724040527
 2624.6898891281185 510.4719182399993 -999996.42520431348
 3178.2806367745643 -447.34730083956975 -999994.84919302783
 3811.227503807193 -1499.9108982012069 -999991.61237092945
 4580.7972845711201 -2660.0217399681692 -999985.97019187245
 5549.1533727736833 -3941.7266741217068 -999976.8345755178
 6787.7461829782969 -5363.2212561231772 -999962.58047964645
 8379.8746383325251 -6952.8666842853854 -999940.71591565665
 10420.646825091208 -8755.8462458370141 -999907.36834782141
 13013.081059154772 -10837.604449116659 -999856.59274275543
 16253.366477171585 -13275.235391635633 -999779.77385194961
 20200.758813114742 -16122.713850445592 -999665.9379219996
 24808.597288466317 -19317.89587021447 -999505.55396142043
 29718.464483921667 -22462.494546515802 -999305.88370501727
 33782.076434019364 -24411.835537845567 -999131.03925234929
 0 0 0
 0 0 0
 -0 0 0
 0 -0 0
 -0 0 -0
 -20274.726846053392 8630.5978975399848 -999757.19463840267
 -21894.50950488801 6674.3098570956072 -999738.00770075375
 -21145.792273963045 6285.6761705647732 -999756.64326084126
 -18813.767097006632 6865.7319976525305 -999799.43183208292
 -15820.72257125507 7738.1984097375616 -999844.90048341721
 -12752.826060048819 8511.5142555124985 -999882.45286761574
 -9919.5160733173379 9019.723114531831 -999910.11985868425
 -7454.0556023205836 9227.6740106282577 -999929.64106852585
 -5386.730401523464 9164.6116387136553 -999943.49491813453
 -3693.2065667431325 8883.3125346802826 -999953.72242102609
 -2325.3395921803726 8437.2410868504849 -999961.70214594889
 -1228.6799505873648 7870.3487711399375 -999968.27347461379
 -350.81456317089345 7214.0576040031583 -999973.9168108477
 356.30435269079834 6487.8919994735643 -999978.88992948818
 937.72927221943758 5701.5697506706138 -999983.30624375434
 1438.1872750208304 4857.0806424678549 -999987.17011019425
 1904.178278555587 3950.422504619547 -999990.38408732635
 2384.835044079457 2973.297005344969 -999992.73600698239
 2931.9614113490165 1914.9497149379799 -999993.86826613662
 3600.2061976969749 763.70392361108702 -999993.22761289286
 4448.0705138368357 -492.80476263534126 -999989.98585594341
 5539.5817182725632 -1869.5806035925946 -999982.90870532044
 6945.9323407944321 -3388.1949921980645 -999970.13663339557
 8746.9189709039092 -5081.4287466421365 -999948.83393622143
 11031.923249396961 -6996.2921283876385 -999914.67064238735
 13899.26984522169 -9191.259535361829 -999861.15588411735
 17452.562972657433 -11721.257178387834 -999778.98566425324
 21783.973197253781 -14597.416290067846 -999656.12785067037
 26903.512177480556 -17689.578274354873 -999481.50550822681
 32498.676751034654 -20486.783624210169 -999261.79137709783
 37307.422611422786 -21696.728670548004 -999068.27003117721
 0 0 0
 -0 -0 -0
 0 -0 -0
 0 0 -0
 -19902.386727777393 11032.446735359859 -999741.05653492548
 -20633.420040615867 10738.304519513289 -999729.4387950541
 -19434.358071910752 11095.209873629679 -999749.56966442021
 -17151.931972804265 11805.515700827196 -999783.19701255148
 -14477.746678267984 12521.18289166893 -999816.79063222045
 -11817.398465477489 13045.168305535446 -999845.07433771377
 -9378.9896044755005 13304.20893799793 -999867.50751213671
 -7249.1056796043003 13298.561769067715 -999885.29278198699
 -5444.4955938753747 13064.246170323231 -999899.83645349671
 -3945.4530111613876 12649.127063539381 -999912.21263922332
 -2716.4669232993465 12099.245091548517 -999923.1115819203
 -1717.7642661387915 11452.178491594303 -999932.94619875518
 -910.51266344893463 10734.713830731107 -999941.96675890253
 -257.8619941653551 9962.943125313368 -999950.33540245076
 276.40641324547073 9143.5650923697576 -999958.15853309399
 730.02602502860884 8275.6649119364665 -999965.48962065077
 1143.9976948778815 7352.6820362313665 -999972.31428482453
 1563.391118445451 6364.5133182134086 -999978.52415861061
 2037.284092680045 5299.5784904802676 -999983.88184077665
 2618.313555722169 4146.4226533576884 -999987.97573436028
 3362.3709305784755 2894.2201617148889 -999990.15892726695
 4328.766716855288 1531.7331306322244 -999989.45773059409
 5581.0920429649486 44.802404692698815 -999984.42458087939
 7189.1591093917614 -1586.8810908333714 -999972.89853260701
 9232.4796432689909 -3392.345749020667 -999951.62548493093
 11805.612223178427 -5409.022910003674 -999915.68144078786
 15025.014366659041 -7676.2363683246358 -999857.6520377784
 19031.630289210974 -10216.176694063601 -999766.68617347453
 23961.774495157038 -12987.245429636023 -999628.51340845309
 29767.446953768926 -15770.279126282996 -999432.43763554806
 35301.725623871782 -17898.888542614448 -999216.40196551825
 -0 0 -0
 -0 -0 -0
 0 0 -0
 -12465.172599914211 14993.172692983433 -999809.89405219094
 -17203.790863011131 13989.775650684714 -999754.12765198678
 -18543.799704304987 14279.321804146015 -999726.07671368669
 -17613.217782764877 15026.274893535772 -999731.95688752527
 -15672.276649541171 15815.465544687087 -999752.09466858592
 -13399.634093824399 16449.43822860927 -999774.90756075433
 -11138.318426489612 16840.808332209821 -999796.14173957868
 -9053.8973815355293 16971.016221246868 -999814.98866071377
 -7214.3280526369099 16861.124795456399 -999831.81382739614
 -5634.1960769047255 16550.712057295659 -999847.15320140973
 -4300.9468005099798 16084.025938653764 -999861.39337721397
 -3190.3920374160816 15501.722617251316 -999874.75115363603
 -2275.0597461187135 14836.519178889497 -999887.34455527831
 -1527.6464070307643 14111.410096701211 -999899.26212670922
 -921.26509141489294 13339.499219836878 -999910.60051946423
 -427.91702190506044 12524.858954442616 -999921.46931406262
 -16.410419834767833 11664.057970154729 -999931.97242730809
 349.32359957959693 10748.171092067929 -999942.17572377564
 710.99294149444097 9765.0907691129596 -999952.06759689655
 1115.6943607077933 8701.8693528882723 -999961.5156074051
 1614.9386538961774 7546.6470395510232 -999970.21960236609
 2263.4458046886471 6289.6811639174311 -999977.65811239264
 3118.3035365230294 4923.111727405425 -999983.01943281677
 4239.1349502346393 3439.4674552658271 -999985.09978824074
 5690.0233132070525 1829.316155340247 -999982.13845903217
 7544.0015759084263 78.907930252442057 -999971.54050190921
 9890.9126898426857 -1830.9635063496717 -999949.40742959594
 12848.964934256299 -3923.1584722947487 -999909.75239154417
 16577.461998906372 -6216.6442696759859 -999843.25825986289
 21276.584104066249 -8707.2411471664582 -999735.71053577343
 27111.794610061286 -11319.732093769871 -999568.31395275192
 33795.705471462279 -13744.633250378281 -999334.24606009503
 39429.784411506502 -14713.859918670196 -999114.00471995957
 -0 -0 0
 0 0 -0
 -11479.895003546249 15871.317648738112 -999808.13823793246
 -15074.305044630779 16066.935981458055 -999757.27999129333
 -16349.467221152092 16884.312320101173 -999723.76930783328
 -15781.192227942105 17899.990414347376 -999715.23161099758
 -14290.998248572936 18799.839191971114 -999721.12782286201
 -12456.67992612442 19458.456564615113 -999733.06416930177
 -10585.329272489846 19843.400318351923 -999747.06314547325
 -8828.1821332326926 19966.790923700824 -999761.66682886542
 -7250.665680688161 19862.275655888443 -999776.43393558566
 -5872.1206464458774 19571.806835699172 -999791.20949141157
 -4688.7858666789207 19137.433994700761 -999805.8681100019
 -3686.9718706875105 18596.285456479873 -999820.27605247428
 -2849.9158970921162 17977.714931473714 -999834.32614869869
 -2160.3643299030855 17301.934356457805 -999847.97639115469
 -1600.3708795422629 16579.729735778623 -999861.26606391557
 -1149.5448451069797 15813.035589375306 -999874.30532647355
 -782.83981755432433 14996.260602935914 -999887.24330783868
 -468.75115178712986 14118.257882704887 -999900.22255558858
 -168.49732660175741 13164.777035199162 -999913.32637097302
 163.62278378702177 12121.083610057382 -999926.52358045895
 578.86924421587628 10974.321745320338 -999939.61276300484
 1132.1997902996582 9715.1336261161905 -999952.16600708524
 1880.6340367658095 8338.1758495960712 -999963.46835227974
 2882.7273452117856 6841.3952164138618 -999972.44221755723
 4200.1081227442428 5224.2649308949567 -999977.53282145737
 5902.0539529432372 3485.4575972155812 -999976.50839630945
 8074.0008436645749 1620.6794415098584 -999966.09137936495
 10830.429221495086 -378.47020795230515 -999941.27755742718
 14330.354679820417 -2523.3217450962443 -999894.13128696836
 18784.52518387049 -4821.3557386685497 -999811.93038613885
 24406.815312584356 -7249.6680552259932 -999675.82229410065
 31122.201749049451 -9641.7342777656922 -999469.08182214852
 37372.003766645183 -11324.113507937793 -999237.25800618797
 0 0 0
 -0 -0 0
 -8875.6763033084517 16384.576974172178 -999826.36892989406
 -12408.265251067678 17175.08608366688 -999775.50048572302
 -13967.646600303018 18423.412495451023 -999732.70563709736
 -13887.600195647588 19695.038055938585 -999709.57784587692
 -12905.807127909364 20759.625765194512 -999701.19439783914
 -11526.811056407383 21537.341257177526 -999701.59325592837
 -10039.476611903683 22023.190317988749 -999707.0510892563
 -8595.0424290304236 22244.757739431698 -999715.60755984834
 -7265.1606689302134 22242.308810843566 -999726.21108942502
 -6077.9383769310589 22058.948248713768 -999738.19646307745
 -5039.4011397248569 21735.199947345543 -999751.06177458097
 -4145.8193267854394 21305.790333591711 -999764.40998885874
 -3390.0501181125956 20797.703073154178 -999777.95690196997
 -2763.8201672184096 20229.102294458433 -999791.5506336526
 -2257.3154848285271 19608.975846905218 -999805.17731858033
 -1857.2428076386716 18937.502432641038 -999818.94443482487
 -1544.3951446377403 18207.177464780532 -999833.04282885324
 -1291.6144899908927 17404.70187961288 -999847.69244344975
 -1062.7873012313667 16513.503770565447 -999863.07796436397
 -813.18218048828624 15516.619963060442 -999879.27933309192
 -491.0349738010936 14399.501416483752 -999896.20123471355
 -39.907132972794621 13152.257462806729 -999913.50452479254
 598.99131988585702 11770.888719386612 -999930.54128182062
 1485.5267633899432 10257.260717898052 -999946.2894639892
 2681.5165797517375 8617.808218730117 -999959.27059572679
 4254.8045741325459 6861.2412017199058 -999967.4094725328
 6287.4220144109304 4995.6765933979195 -999967.75525003171
 8888.1785369260506 3025.708897722343 -999955.92171253345
 12208.066621309827 950.06171011286142 -999925.02743561566
 16449.484690627974 -1238.2296127858365 -999863.93136308237
 21832.66809911163 -3540.2498623081883 -999755.37069554499
 28370.294540953095 -5890.9122991596687 -999580.12362188508
 34750.505660216462 -7905.6061379414059 -999364.75010275946
 -0 0 -0
 4931.1434420409487 15562.211098835623 -999866.7418261643
 -3595.6097470051764 16073.022874428991 -999864.35556340602
 -8925.9892490549391 17336.834172200608 -999809.86237224692
 -11312.776023445305 18949.138642508577 -999756.44596239063
 -11871.206197105927 20481.848787255985 -999719.74489537894
 -11435.635731976863 21755.006882325659 -999697.92733152909
 -10516.667109215876 22718.403501172965 -999686.58781403676
 -9407.2540278632132 23381.532741788847 -999682.35329943674
 -8267.2625019234074 23778.840436962771 -999683.05933340581
 -7178.8050044515903 23953.009594891155 -999687.31015755876
 -6180.5995047719689 23946.903565526205 -999694.12622030789
 -5288.8015117751229 23799.461850843796 -999702.76292214938
 -4509.1463732720895 23543.388319541376 -999712.64694682125
 -3843.2864887391333 23203.710642785158 -999723.37021866767
 -3291.0962255855488 22796.867748381181 -999734.70056135242
 -2850.2375991931249 22330.290059136554 -999746.58503617952
 -2514.0849527455107 21802.572986863765 -999759.13458592771
 -2269.0457722097817 21204.393344278724 -999772.58670868981
 -2092.1995885246092 20520.248084352723 -999787.24842810351
 -1949.9919781360793 19730.976286339919 -999803.42373192182
 -1798.3963033865191 18816.83133542068 -999821.33035319392
 -1584.5627318621086 17760.711371809823 -999841.0105074289
 -1249.5238826163047 16551.022298167954 -999862.2416867998
 -731.1382060300898 15183.659435963113 -999884.454286122
 33.834414898302775 13662.697106252472 -999906.66042536951
 1109.7297787897517 11999.622691835906 -999927.38614114968
 2565.1941261561974 10211.194794982857 -999944.57410396193
 4480.5235388917145 8316.2378870491993 -999955.38155270857
 6959.5344158588814 6331.7688080128091 -999955.73581257905
 10144.967044578692 4268.9421288218946 -999939.42605378106
 14231.97367321658 2129.7478448726033 -999896.45218866633
 19459.356396928466 -92.303215104973873 -999810.64453662105
 26004.000083293366 -2393.5912246742 -999658.9732007198
 33498.047886831453 -4632.1717695359894 -999428.04832187353
 39829.975185566473 -5797.9886975779327 -999189.64986822207
 6499.8908712301172 14191.785032054329 -999878.16490623786
 -450.46301761429476 15162.249184610897 -999884.94502254284
 -5781.7999146899783 16788.774289062716 -999842.34149570658
 -8646.1568383895974 18656.557110133679 -999788.56607220822
 -9764.5558666719571 20412.745679583179 -999743.95385145838
 -9846.5263899997208 21900.190803851459 -999711.6722139467
 -9370.2754642870877 23077.543639585077 -999689.76433555945
 -8626.45952157389 23957.597722454684 -999675.75628675311
 -7782.7748019478358 24575.422119946365 -999667.68330481113
 -6931.9514591092184 24972.858718065927 -999664.09577238292
 -6123.3727519645263 25191.07436506775 -999663.90055781964
 -5383.0290169701821 25266.905284481007 -999666.24755262572
 -4725.5403949982174 25230.903998114238 -999670.48108434887
 -4160.633408135267 25106.12174763732 -999676.13344544545
 -3695.6286662744947 24907.267714411802 -999682.93490674521
 -3335.0913824766599 24640.207328237073 -999690.82087828137
 -3078.6908113905206 24301.94709065327 -999699.92349229008
 -2918.2774896106966 23881.302379833141 -999710.54163349548
 -2835.1535466383502 23360.420293464911 -999723.08799391019
 -2798.3505589977058 22717.193764232044 -999738.01485270518
 -2764.4632025611072 21928.434862116661 -999755.72090771224
 -2679.1763579499602 20973.45443547289 -999776.44312270416
 -2480.1622066889108 19837.539229830185 -999800.14044444577
 -2100.5534837140794 18514.719392799441 -999826.3813487161
 -1471.8547035267095 17009.29068514314 -999854.24821526872
 -524.98007196749745 15335.729705940239 -999882.2629641504
 811.83496737395876 13516.943541745473 -999908.31237732735
 2619.2566918423495 11581.069631032402 -999929.50667563744
 4997.7231202282155 9557.2955627109186 -999941.83874120435
 8082.3620511359695 7471.3750251036872 -999939.42515479843
 12057.987131043723 5342.1280085517255 -999913.02952541213
 17158.626206987596 3182.6121470363105 -999847.71466789406
 23594.05307051419 1020.3720422399178 -999721.1008579348
 31196.643043100434 -1003.0471122037018 -999512.76297970919
 38119.94842490468 -2335.8818110080842 -999270.4404655667
 9107.1398490313768 12502.15125789625 -999880.37095329317
 2572.5409788481315 13818.233120524603 -999901.21435386734
 -2773.0427371305659 15697.513143184433 -999872.94108556502
 -5990.6482795705242 17738.979321453917 -999824.70500874484
 -7581.4302308746092 19666.083472610644 -999777.8588649095
 -8128.8921458704081 21342.118139742142 -999739.18354028231
 -8063.6186681423087 22726.143891031705 -999709.20793889812
 -7665.5423916597247 23827.559187230756 -999686.69436129881
 -7106.2479244107353 24677.880664505265 -999670.1973382748
 -6487.2199066755948 25315.733599695548 -999658.4564791075
 -5867.4847812327098 25779.342880087286 -999650.43795469485
 -5282.1282833899695 26102.831793280042 -999645.30774328648
 -4753.9690789343913 26314.293393568481 -999642.41493705846
 -4300.1364528057993 26434.619690745785 -999641.29551969422
 -3934.7698261609844 26476.656601639737 -999641.68792703596
 -3668.8293434827419 26444.612055281537 -999643.54756307718
 -3507.9468760741411 26333.839844949722 -999647.0493067716
 -3449.2996410907699 26131.231257621926 -999652.57018873654
 -3478.4850821366385 25816.436324403396 -999660.64829873189
 -3567.2997551232966 25364.060511614047 -999671.91558371822
 -3673.0835835144121 24746.799373587008 -999687.00320537924
 -3739.9302923748605 23939.266243066777 -999706.41913171276
 -3701.5749433109127 22922.026277285124 -999730.40318592021
 -3485.2672431811275 21685.20191115703 -999758.7733700145
 -3015.4944642964992 20230.964062251085 -999790.78555778228
 -2216.1696708339032 18574.375301722357 -999825.02527899412
 -1009.8832238781001 16742.325178793537 -999859.32744735712
 686.94183180320749 14770.693697324221 -999890.67138293653
 2973.6635136984869 12700.251205034923 -999914.92685359798
 5979.4616414194497 10572.249219696398 -999926.23407175171
 9878.6587492237195 8425.4987466859548 -999915.70798352093
 14894.702830191824 6299.4406997240976 -999869.22388603969
 21245.90394362844 4256.0362842376089 -999765.22129986365
 28850.525997707147 2450.7384147791599 -999580.73262287234
 36000.895095987638 1263.5698067902417 -999350.95884460479
 12281.134828755166 10694.580918631456 -999867.39104057825
 5771.1563698766377 12167.943721923371 -999909.31333783199
 246.39587945905126 14194.989532783633 -999899.21570188017
 -3316.552627617054 16354.700649196953 -999860.75242772838
 -5325.8105848409505 18407.43181875506 -999816.38424035232
 -6288.7296138074053 20233.870288096437 -999775.49598547805
 -6597.2728843967998 21794.571969174176 -999740.70269403828
 -6519.1427255805547 23095.168636705359 -999712.01551435073
 -6227.154159517876 24162.648038378789 -999688.64602477453
 -5829.544911175064 25031.547263722459 -999669.6644630729
 -5393.6579112250138 25736.583087991519 -999654.20858679526
 -4962.7506383088985 26308.860447169165 -999641.54323841166
 -4567.1225264867453 26773.869559422415 -999631.08260029776
 -4230.679445667889 27150.277775490133 -999622.41059719224
 -3973.8311344723625 27449.049631847007 -999615.30517515738
 -3813.488130685661 27672.755970340164 -999609.76179971511
 -3760.9724263748435 27815.163251459919 -999606.00827511144
 -3818.7333299981874 27861.317254865109 -999604.50392971828
 -3976.844277769771 27788.39704391174 -999605.91719903308
 -4210.2170042193293 27567.562480013301 -999611.07615496556
 -4477.3185367801807 27166.897303690243 -999620.8847906345
 -4720.8462057551988 26555.318047582135 -999636.19817136147
 -4870.3678084603771 25707.067477875447 -999657.65449932823
 -4846.3855952908298 24606.149782971235 -999685.47550693154
 -4564.7719984058094 23249.938355509774 -999719.26220467885
 -3940.144924857048 21651.214690123827 -999757.8207548135
 -2886.6332092534344 19838.170383045712 -999799.03697921638
 -1314.6492826786425 17852.322938105815 -999839.77029470936
 877.22506819521107 15744.832652253492 -999875.6576299537
 3815.1619064551264 13572.254168403535 -999900.61428944825
 7665.2914835640986 11393.570409170004 -999905.71048464533
 12640.698218187472 9272.2000894320554 -999877.11197629618
 18958.941071490462 7291.2749455420762 -999793.67664689512
 26570.970191328837 5597.4439758884664 -999631.25809671846
 33818.912211805669 4482.6640462410433 -999417.92404372012