# OOMMF OVF 2.0
#
# Segment count: 1
#
# Begin: Segment
# Begin: Header
#
# Title: Oxs_TimeDriver::Magnetization
# Desc: Oxs vector field output
# Desc:  MIF source file: /mnt/gpfs/work/plgrid/groups/plggspinsym/MF/switching-obrazki/p-ap/Anisotropy.mif
# Desc:  Iteration: 17000, State id: 119150
# Desc:  Stage: 0, Stage iteration: 17000
# Desc:  Stage simulation time: 2.50235e-09 s
# Desc:  Total simulation time: 2.50235e-09 s
# meshunit: m
# meshtype: rectangular
# xbase: 1.0000000000000001e-09
# ybase: 1.0000000000000001e-09
# zbase: 3.4999999999999998e-10
# xnodes: 35
# ynodes: 35
# znodes: 5
# xstepsize: 2.0000000000000001e-09
# ystepsize: 2.0000000000000001e-09
# zstepsize: 6.9999999999999996e-10
# xmin: 0
# ymin: 0
# zmin: 0
# xmax: 7.0000000000000005e-08
# ymax: 7.0000000000000005e-08
# zmax: 3.4999999999999999e-09
# valuedim: 3
# valuelabels: Magnetization_x Magnetization_y Magnetization_z
# valueunits: A/m A/m A/m
#
# End: Header
#
# Begin: Data Text
 -0 0 -0
 0 0 -0
 -0 -0 0
 -0 0 0
 0 0 0
 -0 0 -0
 0 0 0
 0 -0 0
 -0 0 0
 0 0 0
 0 0 0
 -0 -0 0
 0 0 0
 1147.8768651094863 19698.338259999349 -999805.30997214513
 -3240.7966396584602 16836.999851469645 -999852.99553141429
 -8019.9908241558469 12835.437038567885 -999885.45909179503
 -12546.686593497438 8204.7994976328773 -999887.62464625388
 -16605.499156139747 3150.7399299291146 -999857.15491547552
 -19933.023103033276 -2114.9392684531254 -999799.080626635
 -22221.619430754312 -7270.6877876697436 -999726.63099917921
 -23164.768111686695 -11812.452759925394 -999661.87257398514
 -22526.685004802948 -14901.704541267365 -999635.1772844228
 0 0 0
 -0 0 -0
 -0 0 -0
 -0 0 0
 0 -0 0
 -0 0 0
 -0 -0 0
 0 0 0
 0 -0 0
 0 -0 -0
 0 -0 0
 -0 -0 0
 0 0 -0
 -0 -0 -0
 -0 -0 -0
 -0 -0 -0
 -0 0 -0
 0 0 -0
 0 0 -0
 -0 -0 0
 0 0 0
 0 0 -0
 0 0 0
 14557.766501270406 24434.649085866811 -999595.42783995636
 10656.197958901103 21573.069601539792 -999710.48214622028
 6047.275335847844 17606.472429667192 -999826.70627944125
 678.94945370035134 14674.456707933035 -999892.09385211475
 -4654.8143236160195 11172.688249418894 -999926.74918760615
 -9693.7172771845635 7346.5702498893534 -999926.02713946486
 -14367.158305170855 3209.7075324045786 -999891.63539845194
 -18511.767861788208 -1163.2798485417197 -999827.9658174325
 -21828.193812990183 -5621.6872751195051 -999745.93101799791
 -23937.156829544012 -9944.732150978256 -999664.0009650056
 -24396.355454654393 -13901.218394945916 -999605.70925123582
 -22667.095359611889 -17560.30944740081 -999588.83463155467
 -18647.05265257266 -22276.491077683128 -999577.93361630314
 -14179.497205712954 -26284.210008130678 -999553.9415975716
 -9924.1202394414595 -28701.465867126357 -999538.76247724926
 -0 0 -0
 0 -0 0
 -0 0 -0
 0 -0 -0
 -0 0 0
 -0 0 0
 -0 0 -0
 -0 0 0
 -0 0 -0
 -0 0 0
 0 -0 -0
 -0 0 -0
 -0 0 0
 -0 0 0
 -0 -0 0
 0 0 -0
 0 -0 -0
 -0 -0 0
 22950.566045968448 24486.71003086678 -999436.67760895879
 18911.830790608408 21743.061825114208 -999584.70472422533
 13922.811001987462 19227.374097613032 -999718.19200168282
 8899.1189425037192 15745.58149832802 -999836.42779473029
 3849.2715721064819 11998.376508875712 -999920.60788320354
 -1460.6455838752881 8578.8380583759899 -999962.13430911803
 -6754.6108250615234 5270.7934005122206 -999963.29631118511
 -11817.336206162772 1946.4333301260842 -999928.27840914752
 -16524.713381303889 -1475.0729040306155 -999862.36953272414
 -20653.920698268801 -4966.9521718086016 -999774.34701332124
 -23860.331131936004 -8430.5242483731836 -999679.75415088388
 -25732.33786660694 -11738.869648162363 -999599.94284078595
 -25850.819559193187 -14818.983579241507 -999555.96784462058
 -23896.96932794297 -17821.395181219152 -999555.56760529021
 -20021.059079687897 -21148.688752563688 -999575.85512925161
 -14979.400412009274 -24293.775722247312 -999592.63203789876
 -8888.2702756864255 -26900.333546715923 -999598.60479423532
 -1736.7849531688908 -29116.795634517253 -999574.50737301435
 3638.0695638950751 -31011.677484195214 -999512.40127847565
 -0 0 -0
 -0 -0 -0
 0 0 -0
 -0 0 0
 -0 0 -0
 0 0 -0
 0 -0 -0
 -0 -0 -0
 -0 -0 0
 0 0 0
 0 0 0
 0 0 -0
 -0 0 0
 0 0 0
 -0 -0 -0
 26329.869923894854 21356.137481326903 -999425.1614511559
 21900.324896938244 19579.716213597472 -999568.41210714704
 16702.165855846208 16267.173896505214 -999728.17140918085
 11504.951598537187 12940.775917718345 -999850.0749649232
 6427.8528864159289 9625.4453550495818 -999933.01451096602
 1381.8135668734587 6419.5288785270805 -999978.4398877027
 -3756.7470256828778 3436.2273464298687 -999987.03951271717
 -8896.5656893400137 613.15876101380502 -999960.23678707809
 -13882.277385656247 -2140.4954204853489 -999901.34546061221
 -18527.051383458107 -4873.7904993980428 -999816.48042688461
 -22551.285212824405 -7564.3738279601675 -999717.06986719056
 -25583.95705686666 -10144.27722099731 -999621.20564790734
 -27222.116929122225 -12542.161310511028 -999550.72434547229
 -27117.156260395728 -14741.692866892952 -999523.55766523466
 -25090.743757483688 -16841.463827396463 -999543.30555201403
 -21277.735793047628 -18996.942039795678 -999593.10429427132
 -16070.953216638838 -21138.997131985539 -999647.37145803683
 -9746.111545881995 -23254.218697060027 -999682.07677367341
 -2681.0332989255844 -25455.802092783764 -999672.35342399217
 4317.1797591824698 -27517.800292257311 -999611.99103752349
 10654.39115824747 -28433.428489678899 -999538.9057427278
 -0 -0 -0
 0 -0 0
 -0 0 -0
 -0 -0 -0
 0 -0 -0
 0 -0 -0
 0 0 -0
 0 -0 -0
 -0 0 -0
 0 0 -0
 -0 0 0
 -0 0 0
 -0 0 -0
 28755.261710583483 19544.321361838756 -999395.39443928865
 24538.766605962395 17259.83782235656 -999549.87215836509
 19177.821352028557 13993.769589614139 -999718.15307158569
 13902.465092594932 10647.575117808297 -999846.66354819632
 8880.9398830793252 7556.4083922846248 -999932.01248835004
 3994.3011584464189 4692.993907938584 -999981.01050291746
 -893.31244099219168 2023.8745143126077 -999997.55295942235
 -5856.5870202789001 -461.80839320281729 -999982.74341184599
 -10843.020110791951 -2803.0390528299649 -999937.28397682274
 -15707.342267443413 -5041.6993545110608 -999863.92107451905
 -20224.844623623889 -7189.5397707021684 -999769.60654834646
 -24082.234756286467 -9217.0855308292266 -999667.49037040328
 -26901.575133591006 -11071.969212945349 -999576.76881422137
 -28306.107998112013 -12711.200585737233 -999518.47888354131
 -28009.776027929744 -14137.578310477569 -999507.66946851416
 -25907.680862070036 -15421.918999098256 -999545.37490137701
 -22129.892456864072 -16672.703829071659 -999616.07070258493
 -16983.995941708985 -17963.325249157082 -999694.38471357082
 -10800.731198632988 -19387.613601631925 -999753.70199084969
 -3911.5665715349173 -21059.456070697965 -999770.57316014392
 3362.8100074426029 -22989.099272817053 -999730.05997793167
 10686.231758621867 -24978.084021399234 -999630.88176057313
 16755.982462224998 -26304.509333012418 -999513.53659691627
 0 -0 -0
 -0 0 -0
 0 0 0
 0 0 -0
 0 -0 0
 -0 0 0
 -0 0 0
 0 -0 0
 -0 -0 -0
 -0 -0 -0
 0 0 0
 30795.495230344979 18643.824426268202 -999351.81256866711
 26724.841523160871 16014.505414644915 -999514.54139591486
 21443.544308747205 12476.419350292717 -999692.20931628451
 16161.521855710043 9084.9432378124857 -999828.11973742431
 11197.505719981798 6059.4221583588487 -999918.94634953176
 6469.2359960929234 3377.9595246403719 -999973.36883292883
 1813.417274690383 954.27016933008974 -999997.900440912
 -2893.7414872399236 -1276.0047430174875 -999994.99902354542
 -7695.4880453921451 -3348.1593810185254 -999964.78402616899
 -12532.471947516644 -5285.6362477534922 -999907.49531961267
 -17247.874215071286 -7097.559713052774 -999826.05261174357
 -21593.492496941308 -8769.4393275148905 -999728.37211697933
 -25240.693643540926 -10263.86281945989 -999628.71132456779
 -27818.326277273332 -11536.452594123624 -999546.4226261205
 -28982.00995139889 -12560.491732577859 -999501.01407983224
 -28497.990097727357 -13350.939546148471 -999504.68581874343
 -26312.15131308023 -13975.439174513402 -999556.0803642571
 -22570.374134228219 -14540.370556085876 -999639.51294230693
 -17565.053172894372 -15163.026396610172 -999730.73951816082
 -11629.977054563107 -15971.486421035672 -999804.80857776082
 -5060.171798598778 -17098.374750936469 -999841.00748181203
 1935.6756923246255 -18657.017323755517 -999824.06895623147
 9187.0837235844301 -20711.116464109211 -999743.29062388104
 16215.665305215734 -23081.31145755131 -999602.07345728774
 21781.274381808744 -24818.459068194163 -999454.66139079304
 0 -0 0
 0 0 0
 0 -0 -0
 0 -0 0
 0 -0 -0
 -0 -0 0
 0 -0 -0
 0 -0 0
 0 0 -0
 32889.892878471313 18094.648541987928 -999295.17092828196
 28788.14562860713 15362.695828556198 -999467.47333174653
 23523.153290898732 11674.612975630236 -999655.12286544207
 18280.096398075188 8161.8810099086631 -999799.5908051061
 13383.265627090892 5114.2220187704279 -999897.361199787
 8792.8332149004291 2493.8854212403298 -999958.23243751551
 4352.2905909840474 197.55167500915317 -999990.50922493613
 -90.761971709204516 -1868.0126944122669 -999998.25114388973
 -4631.2653948014258 -3763.1782966830242 -999982.19477646227
 -9283.3641734322482 -5517.157185711817 -999941.68836298224
 -13968.206292654844 -7136.4454322642232 -999876.97261190985
 -18512.070273117053 -8607.7379772244767 -999791.58333180565
 -22652.119894144158 -9899.1688193583013 -999694.39726397733
 -26056.704526073652 -10967.477413183211 -999600.30141473655
 -28370.815786468174 -11773.681761411694 -999528.127282765
 -29285.730124902155 -12303.231907451122 -999495.36091753969
 -28614.848674455225 -12583.135589589385 -999511.30815717741
 -26346.65915207487 -12687.748039958644 -999572.34585656633
 -22648.273803113396 -12728.822973821741 -999662.45941289607
 -17811.314200529763 -12836.661699002174 -999758.95955118863
 -12161.925548258756 -13147.924647708203 -999839.59695764026
 -5977.694899214308 -13799.378041743254 -999886.91577065492
 561.21131997045632 -14925.20550134682 -999888.45542020176
 7356.0473355090226 -16647.874686125517 -999834.35469883354
 14266.39045532079 -19002.311247959522 -999717.65127490473
 20878.631503124492 -21694.452304126487 -999546.61396344122
 26045.778648886429 -23661.091833266684 -999380.69330352335
 0 -0 0
 0 -0 0
 0 0 -0
 0 0 -0
 0 0 -0
 0 -0 0
 -0 0 -0
 35581.328636669532 17401.806029815849 -999215.26519531815
 31143.341853581584 14857.644923649974 -999404.49400906404
 25672.394337073511 11226.300330172098 -999607.37209661398
 20346.090147163985 7689.1112414563604 -999763.42910912691
 15463.911903475262 4606.5418794359512 -999869.8151262264
 10971.800522653793 1987.9480520308689 -999937.83189548017
 6710.3095532048083 -262.87513912218702 -999977.45106695336
 2512.2634606388219 -2247.8769684648182 -999994.31777457579
 -1750.5748945462592 -4043.3216317007291 -999990.29347175232
 -6142.8940541834909 -5692.9527924500435 -999964.92695551179
 -10651.427485494316 -7210.8282661950079 -999917.27210216573
 -15175.921674048814 -8586.7112796554375 -999847.96833855845
 -19526.775062695258 -9790.7130262184291 -999761.39503087895
 -23433.198690917681 -10779.241521626091 -999667.29122810182
 -26569.15305009246 -11505.65264586137 -999580.76215150987
 -28602.576678019923 -11936.137075042547 -999519.59522517794
 -29262.951803022683 -12067.131944751301 -999498.90644182416
 -28408.230036189278 -11937.845161104829 -999525.11740281945
 -26064.456102478522 -11631.895591135773 -999592.58857448469
 -22418.041498055434 -11266.511911244375 -999685.19901254191
 -17760.394303408757 -10974.895668643911 -999782.03627553233
 -12406.731722039514 -10891.543219312955 -999863.71436025167
 -6621.0048480085907 -11145.439947224537 -999915.96720083698
 -570.33416162131266 -11860.38666090793 -999929.50048850838
 5678.0299138448372 -13153.58682828055 -999897.36629808554
 12111.621147094715 -15108.410842656624 -999812.50470025558
 18674.938340118319 -17684.890577712915 -999669.19094430783
 25038.945499619702 -20500.904066526586 -999476.24491066439
 30109.009743383896 -22423.210606868652 -999295.07511963288
 0 0 0
 0 0 0
 -0 0 0
 0 -0 0
 -0 0 -0
 39330.358188919046 15785.515253334808 -999101.56662519451
 34301.180845213836 14045.738301471552 -999312.83701761311
 28269.750018721203 10815.246863582943 -999541.82087052206
 22592.565228608863 7432.1200025938815 -999717.12978655007
 17554.869075703169 4390.6920619973971 -999836.26079221186
 13057.594514327106 1777.834055419554 -999913.16549566982
 8905.6241547640257 -462.75806032273897 -999960.23706615029
 4905.4267888490558 -2420.8300821221651 -999985.0380729367
 900.1871714519126 -4175.2621713117951 -999990.87838282657
 -3212.9105696822344 -5779.0062976523977 -999978.13990700955
 -7470.9347190598419 -7256.1479408568448 -999945.76525503816
 -11835.764603521387 -8603.9490850300499 -999892.93763702142
 -16187.390051446417 -9796.91230938015 -999820.97843190166
 -20323.482324138819 -10792.303193883174 -999735.20607108367
 -23970.976304953834 -11538.542376273102 -999646.06453225121
 -26816.063641378307 -11987.858845646033 -999568.50189022988
 -28554.87768395825 -12112.291518987946 -999518.83991979505
 -28957.109196769048 -11918.99472614068 -999509.59144556732
 -27923.342428572618 -11459.037335264655 -999544.38491292903
 -25512.720279686018 -10825.251760714829 -999615.8837414739
 -21926.650859621808 -10139.304512017814 -999708.16565940506
 -17453.127075576729 -9533.6402094305522 -999802.22947323008
 -12393.040201198381 -9136.2960937290391 -999881.46329865488
 -6994.311341131639 -9063.5756452168807 -999934.463455174
 -1411.0146196528547 -9420.1782958087624 -999954.6336102545
 4307.4095815054898 -10300.66890226957 -999937.66927887208
 10200.090553410811 -11780.612350140438 -999878.58029130625
 16353.55319464159 -13880.915881678686 -999769.91426637536
 22805.828316682557 -16473.24590418701 -999604.18484726758
 29290.518769638355 -19043.570450277763 -999389.51762298902
 34626.279986792266 -20297.9234029492 -999194.18284926203
 0 0 0
 -0 -0 -0
 0 -0 -0
 0 0 -0
 37233.486476742313 12721.653846767171 -999225.61366699846
 31505.339629489717 10276.014194385181 -999450.75772001257
 25306.45351008288 7239.6352908332392 -999653.52552351751
 19863.433119969301 4342.0022565972413 -999793.27415275807
 15173.259272668951 1779.6534198050979 -999883.29570842918
 11003.766853519823 -447.14000939502586 -999939.35675162089
 7116.1231256757565 -2400.0691191097958 -999971.79983231705
 3315.1217778097907 -4148.2354660760902 -999985.90095566656
 -538.9827580824101 -5745.6324575763674 -999983.34846398758
 -4525.1725270876814 -7222.837702106096 -999963.67605484987
 -8655.9661795235206 -8585.1671460247944 -999925.68181569048
 -12871.185688050666 -9814.0452583578099 -999868.99996682093
 -17033.793194602014 -10870.64323726389 -999795.81865749555
 -20932.486195076192 -11702.185548201032 -999712.40358169423
 -24297.032329271311 -12251.932412627231 -999629.70362637099
 -26831.329453241426 -12473.060764794847 -999562.15540351951
 -28263.881021654171 -12344.472850132002 -999524.27035047347
 -28405.95427800516 -11884.073606494843 -999525.82285605383
 -27198.812963535172 -11154.192168632684 -999567.81089150719
 -24730.390465424527 -10255.996908771924 -999641.54691310949
 -21212.313091199063 -9314.4331025172542 -999731.60353631922
 -16925.07367504303 -8459.6253534364769 -999820.97228452575
 -12151.579594398476 -7811.8011723860918 -999895.65199364896
 -7120.0910362542845 -7473.9118635884806 -999946.72105322219
 -1968.6919738337735 -7531.5306884429174 -999969.69968964637
 3267.4536929386391 -8055.6431659521768 -999962.21446590032
 8651.3655814467584 -9101.3933867725063 -999921.15614782122
 14325.195060983871 -10693.726079574344 -999840.20373707719
 20457.425242315046 -12783.671638616803 -999708.99340352614
 27043.929410048473 -15135.512935612438 -999519.65569979674
 32987.361100515132 -17058.83934415695 -999310.17707609397
 -0 0 -0
 -0 -0 -0
 0 0 -0
 41279.508816295005 11318.2336264762 -999083.52991101902
 35693.07761215137 9834.5935694115178 -999314.40747139102
 28831.410008619918 7148.9773109461148 -999558.72359772935
 22672.552886000874 4421.2959359857168 -999733.16814431956
 17517.316344525214 1940.1974187353746 -999844.67756850214
 13131.178844997397 -255.98151640514999 -999913.74958823505
 9218.1057623382221 -2204.2216118032447 -999955.08295784995
 5528.5937634740394 -3959.8200427728029 -999976.87697077647
 1877.425276871918 -5572.1708313789386 -999982.7129438566
 -1856.4058830256904 -7073.8368198298558 -999973.25693732616
 -5729.9529880018299 -8475.9839744678648 -999947.66129753983
 -9733.8143247159387 -9767.223813119057 -999904.92257898045
 -13788.419581718601 -10914.871157895819 -999845.36057984724
 -17742.718079163511 -11868.786082814813 -999772.13797549065
 -21380.335719524806 -12568.586445076486 -999692.40863342234
 -24438.63470599 -12954.864783843355 -999617.38911052328
 -26643.962867075406 -12983.79341229905 -999560.66366747592
 -27760.510409767696 -12642.329526479632 -999534.65450975404
 -27641.789390716727 -11959.291245582053 -999546.3505171648
 -26267.474107267139 -11007.547802121046 -999594.34456953977
 -23750.038390236859 -9895.4028769823362 -999668.95354330412
 -20306.68504742267 -8749.8183204917768 -999755.50972312375
 -16206.464458172355 -7697.6196180178513 -999839.03562622657
 -11711.026172702044 -6850.9807237667474 -999907.95372829435
 -7025.864119174691 -6300.5171218924615 -999955.46936719911
 -2270.2896627367263 -6115.4219988404511 -999978.72347296635
 2534.7656356562052 -6347.2838228434639 -999976.64320285234
 7467.1993840995447 -7033.0774433671231 -999947.38699345244
 12697.415856664369 -8192.5914460547174 -999885.82201967482
 18467.975786338546 -9814.3534186518718 -999781.28224993718
 25003.386174760148 -11817.218694485062 -999617.5188651518
 32093.423217282132 -13917.445954499732 -999387.97115249489
 37994.801431287669 -14990.685533687294 -999165.48900140997
 -0 -0 0
 0 0 -0
 39357.502844692528 8899.2774288980672 -999185.56326193654
 33117.64906389502 7081.5479142599734 -999426.37197525392
 26229.582141363433 4627.7522029930014 -999645.23353549652
 20338.054283398713 2243.4732852319967 -999790.64327267255
 15476.180305457683 86.474652370021118 -999880.23301057797
 11339.645961767337 -1851.5882879242236 -999933.98984646681
 7620.4952078637934 -3615.3238189118615 -999964.42811055598
 4076.7895780903023 -5249.3345932851907 -999977.91189258953
 538.7711532192377 -6785.8802381271798 -999976.83050910663
 -3095.540553463296 -8239.570250558043 -999961.26280509902
 -6862.8629043463452 -9604.9472968166301 -999930.3206224828
 -10734.034018752507 -10855.995792456126 -999883.45714340056
 -14612.603231689647 -11947.756777328861 -999821.84559789614
 -18336.643841882145 -12820.821998109319 -999749.66567431728
 -21688.694803237842 -13409.577840626927 -999674.83900509775
 -24418.268199210564 -13654.43085050509 -999608.5757416751
 -26278.34600116537 -13516.681294532347 -999563.27856630716
 -27071.330202788358 -12992.643776941977 -999549.06547339482
 -26692.869446279186 -12122.234965101774 -999570.17869691108
 -25158.317530363271 -10988.018107569495 -999623.09022806655
 -22600.410718666102 -9703.9903984777156 -999697.48124404799
 -19237.600178627315 -8397.664390918686 -999779.67271401605
 -15324.061498633368 -7191.5820175999788 -999856.71687860857
 -11097.671722698638 -6189.7990067860646 -999919.2607758845
 -6739.0741317315114 -5471.8730015517312 -999962.32103299885
 -2347.085628652922 -5093.5957365549666 -999984.27311209461
 2071.7252772972843 -5091.7141060554213 -999984.89108677907
 6605.1524241849156 -5489.4671664647249 -999963.11817570613
 11433.717770495001 -6300.1678244997429 -999914.78536089638
 16819.410652716844 -7525.3738409270627 -999830.22367492435
 23040.024629779458 -9134.9422076554274 -999692.80786445679
 30082.466883305875 -10963.947033493534 -999487.28708856588
 36452.608511744351 -12358.631383785259 -999258.96121226216
 0 0 0
 -0 -0 0
 36917.130511446681 7015.0919142475386 -999293.70755560917
 30549.217632344527 4971.4012338166131 -999520.90046773106
 23879.884916116163 2689.6041645476043 -999711.21686506609
 18279.544526827052 567.0879416441112 -999832.75434602483
 13668.358742980203 -1358.9057395186701 -999905.66022223548
 9723.6355170693023 -3126.2582907132442 -999947.8373502444
 6145.4893180205427 -4778.8676492327968 -999969.69723338785
 2707.039691114031 -6349.651973928143 -999976.17664418439
 -744.00847268094196 -7855.654091865651 -999968.86709046166
 -4290.9961237456309 -9295.9154450344286 -999947.58528050093
 -7951.6950357755159 -10650.415768510111 -999911.66569353326
 -11679.111665358678 -11880.279429250848 -999861.21902561584
 -15362.435181533376 -12930.079984878894 -999798.38398393011
 -18832.181947173103 -13733.275416322982 -999728.33613409579
 -21873.9241835336 -14221.534016977233 -999659.58176322083
 -24253.734202569809 -14337.704452493716 -999603.01450539031
 -25754.883876156098 -14050.4590123656 -999569.54263226094
 -26219.674962450827 -13366.788725982111 -999566.83498604444
 -25584.917517710081 -12337.791370070223 -999596.51404940418
 -23898.336806492367 -11054.672615498321 -999653.27174538258
 -21308.561065590013 -9635.4233737607865 -999726.51452370849
 -18031.293487946346 -8206.3889108117019 -999803.74455999921
 -14303.035096504535 -6884.6380101016439 -999874.00453582057
 -10336.218403532068 -5765.8410969578617 -999929.95637972525
 -6285.5963628209465 -4919.4400436327542 -999968.14468662988
 -2228.7797777751975 -4390.135322464912 -999987.87955282384
 1841.9129693873726 -4203.3160242253434 -999989.46969006292
 6021.6696751707577 -4372.0440888917692 -999972.31197909068
 10493.210484237348 -4903.8340153116033 -999932.92022299347
 15519.791860303903 -5805.1149327029716 -999862.70892619609
 21396.469117394703 -7075.0741241225069 -999746.03496860468
 28209.159016185604 -8653.4286804521635 -999564.58596714598
 34696.291567748347 -10191.838778761659 -999345.93298504676
 -0 0 -0
 42161.813388452283 7091.3197041120275 -999085.62930143857
 35971.507306761341 5508.2727248126675 -999337.63543342485
 28486.574432817546 3270.3614118110149 -999588.82537437347
 21861.424620323429 1158.9875595857861 -999760.33871193673
 16465.472293613904 -753.48626104349148 -999864.15101282764
 12035.31085405191 -2514.4876714125803 -999924.41146538523
 8224.4405361873851 -4174.341899389713 -999957.46581920842
 4742.2590158502335 -5769.3316507796335 -999972.11250700883
 1377.7894459375113 -7319.1326694992276 -999972.2656120063
 -2003.9572584697366 -8826.2322569445896 -999959.04005086771
 -5468.5581993745773 -10275.399887267236 -999932.25321937539
 -9016.2373274639667 -11633.446496371484 -999891.67932685127
 -12584.137642633537 -12850.152132909941 -999838.24345238588
 -16049.819028886928 -13861.472979877213 -999775.10614936205
 -19239.862404428608 -14596.076114340623 -999708.34859809151
 -21947.171660778353 -14985.67157781519 -999646.81328129803
 -23958.627453926125 -14978.361371787621 -999600.73672498879
 -25090.83456678945 -14552.471328021396 -999579.24928391189
 -25226.738523599921 -13726.858222601497 -999587.50743834244
 -24342.364845961627 -12563.629638975779 -999624.73182890029
 -22513.866365939699 -11161.289277521279 -999684.22586480773
 -19901.261861746647 -9639.8538505053602 -999755.47660117934
 -16713.850792502682 -8122.5608817239572 -999827.32068913232
 -13168.290924404453 -6719.6090666853761 -999890.71551251097
 -9450.7153258124399 -5517.7457393569493 -999940.11743793252
 -5689.832320256105 -4576.7685317347486 -999973.33914358669
 -1942.1370932836251 -3931.7629023496784 -999990.38462576759
 1814.0168681080791 -3598.950176823907 -999991.87841723359
 5680.3258859793641 -3583.258648370283 -999977.44682332105
 9840.0050206737214 -3886.5518176274568 -999944.03294192522
 14556.789094983076 -4516.1061399065002 -999883.84559236537
 20152.795582372852 -5492.2426149534103 -999781.82625074429
 26889.197030962845 -6846.7262173568033 -999614.97258851374
 34465.286139199379 -8532.7840796659184 -999369.46903895005
 40902.061755896728 -9792.9273714606406 -999115.1684954114
 40968.341410076209 4630.6232572742865 -999149.71467260935
 34173.238577525728 3407.8314757987719 -999410.11424227431
 26561.092085688237 1648.3463319712198 -999645.83295364445
 20074.113030994769 -134.19826515237318 -999798.48568441265
 14833.868889155856 -1835.7308601391105 -999888.2869730941
 10523.232584848014 -3470.0879845431846 -999938.60814819264
 6795.1077852028911 -5065.3070929414762 -999964.08394213894
 3371.6818647920668 -6639.7618462537766 -999972.27227760048
 57.804467768697172 -8197.0917555793476 -999966.40160827118
 -3265.0034691021797 -9724.9169631524837 -999947.38148684951
 -6645.6803561157176 -11194.293252449768 -999915.25777496898
 -10068.465825690899 -12559.859564803217 -999870.42956756603
 -13456.878249748959 -13761.501529938289 -999814.74959284975
 -16679.978811240177 -14728.592955992739 -999752.39277352707
 -19564.426537819807 -15387.652836211715 -999690.17868259503
 -21914.920297370089 -15673.463761762312 -999636.9735069169
 -23543.119822273871 -15542.300138690654 -999602.00000571879
 -24301.235725155428 -14984.302486623832 -999592.37723244959
 -24112.512370475786 -14031.062351951903 -999610.78227301023
 -22989.211455963767 -12755.124183096639 -999654.34174203756
 -21031.328742708545 -11260.591227486108 -999715.40064986655
 -18405.679869772222 -9667.3037364433058 -999783.86373605719
 -15311.852547748935 -8093.3193001389427 -999850.01142884546
 -11945.113837171415 -6640.4673014393129 -999906.60486339207
 -8465.1558880454413 -5385.8545681754831 -999949.66558640439
 -4975.2244017141948 -4379.7345539104481 -999978.03229240468
 -1511.3854466161069 -3648.3809613627532 -999992.20248479571
 1961.415647104046 -3200.0113178708098 -999992.95636330603
 5550.8413802319028 -3032.1273294455332 -999979.99698185443
 9439.2350792141788 -3139.3222754807971 -999950.52152432525
 13884.870498754506 -3520.9278437502599 -999897.40145594545
 19207.349327773743 -4186.1979502110007 -999806.7580680392
 25697.238374454439 -5143.5538539344989 -999656.53891408036
 33241.363849669913 -6307.9873542169535 -999427.44660378073
 40031.5770001704 -7191.8656245807733 -999172.53260471346
 39557.604255472164 2445.0464433430611 -999214.30018462893
 32524.898066271533 1586.8998981436544 -999469.66575003765
 24895.585536292354 260.70002254180247 -999690.02288524597
 18495.707103126184 -1219.9932435455332 -999828.19545922067
 13341.153672854298 -2742.4540941765936 -999907.24198008399
 9089.8529904738753 -4284.4886719845554 -999949.50758997386
 5399.2473451208898 -5846.2447394266728 -999968.33427391737
 2004.2669105755324 -7425.017640891404 -999970.42557626835
 -1275.43709462213 -9007.0629919318999 -999958.62218217668
 -4543.0091111225038 -10564.79426912429 -999933.8709086054
 -7832.1483911953164 -12055.859318326084 -999896.65151338256
 -11113.022519957114 -13423.625911389194 -999848.14196850022
 -14298.246276454809 -14599.675365172432 -999791.18301405793
 -17252.053990680197 -15509.139628788749 -999730.88039785868
 -19805.617446352462 -16079.367142878165 -999674.54277372372
 -21779.951858459292 -16251.44183750445 -999630.69397415232
 -23014.995622433002 -15992.670034366156 -999607.19509298808
 -23399.857104635688 -15306.826102513227 -999608.99743957398
 -22896.526221387659 -14238.586433326594 -999636.43978367164
 -21549.480563724028 -12869.840287573752 -999684.94391903596
 -19477.426492649898 -11308.229635138767 -999746.344729373
 -16849.376814499556 -9671.0609918159498 -999811.26673000446
 -13852.304484790042 -8069.1411299597685 -999871.49305392511
 -10659.116346971281 -6594.4763993513725 -999921.44497441419
 -7403.5482139162605 -5313.7925643169174 -999958.47467903781
 -4164.514698347889 -4267.7140545100128 -999982.22155900171
 -958.76975982898398 -3474.1211906454823 -999993.50560016138
 2261.4792530706559 -2933.8718751607721 -999993.1390301676
 5609.7490413682399 -2637.410080998071 -999980.787207313
 9267.858560132092 -2571.2304652075804 -999953.74671611912
 13488.694027573742 -2722.9997844048189 -999905.31572024582
 18586.940725134154 -3081.8124474228161 -999822.49827982939
 24869.231358131514 -3621.9320849895335 -999684.15158970456
 32319.558404054435 -4243.3365147420327 -999468.57891571056
 39261.16361786137 -4678.6890744260736 -999218.02971119189
 38275.823837140517 830.36386936411975 -999266.86716083635
 31132.61674756703 181.86016857671291 -999515.24605747161
 23475.506631430548 -866.21266211017962 -999724.03705423698
 17090.440468616885 -2128.2313726747211 -999851.68273890147
 11950.127784833956 -3517.3199297610918 -999922.40844299388
 7701.8958482289327 -4997.4003568113385 -999957.85250680277
 4009.1571789785326 -6547.6371298700233 -999970.52711903944
 618.49694976031424 -8145.5232251867565 -999966.63339979039
 -2637.0367394554914 -9759.7862552216429 -999948.8949988829
 -5846.7329613039074 -11347.464669087327 -999918.5220603043
 -9030.8558128657023 -12853.100245822532 -999876.61311651743
 -12147.97052121072 -14209.814520659973 -999825.2387209998
 -15103.170797369161 -15342.765563228841 -999768.22002739098
 -17760.159671482998 -16175.552853871081 -999711.42247066228
 -19959.410923660806 -16639.613621528777 -999662.31557166658
 -21542.640131079126 -16685.596396009652 -999628.68382669578
 -22380.828817480073 -16294.397451148794 -999616.72210560099
 -22400.090458636252 -15484.659655153835 -999629.16187094536
 -21598.330239388994 -14313.8044422695 -999664.25720501714
 -20047.278483520215 -12871.401450765321 -999716.17654717248
 -17878.83381654699 -11266.260089927569 -999776.68440754618
 -15259.760099307814 -9610.7628047167891 -999837.37325628265
 -12361.968801505518 -8006.5417717830378 -999891.53262551792
 -9335.5997857563834 -6534.5229026554325 -999935.07118566206
 -6289.4165281301794 -5250.4377408288447 -999966.43750841229
 -3279.5546669362971 -4185.1893622996504 -999985.86425568454
 -304.82928693992534 -3348.5365372583374 -999994.34717510524
 2694.5561369825491 -2734.450993722196 -999992.63104534312
 5838.2217794515091 -2326.8487582641137 -999980.25027562922
 9308.9368768750101 -2104.7706757907345 -999954.45578017435
 13357.249126193847 -2045.9889791890712 -999908.69474411395