# OOMMF OVF 2.0
#
# Segment count: 1
#
# Begin: Segment
# Begin: Header
#
# Title: Oxs_TimeDriver::Magnetization
# Desc: Oxs vector field output
# Desc:  MIF source file: /mnt/gpfs/work/plgrid/groups/plggspinsym/MF/switching-obrazki/p-ap/Anisotropy.mif
# Desc:  Iteration: 6700, State id: 46973
# Desc:  Stage: 0, Stage iteration: 6700
# Desc:  Stage simulation time: 9.85506e-10 s
# Desc:  Total simulation time: 9.85506e-10 s
# meshunit: m
# meshtype: rectangular
# xbase: 1.0000000000000001e-09
# ybase: 1.0000000000000001e-09
# zbase: 3.4999999999999998e-10
# xnodes: 35
# ynodes: 35
# znodes: 5
# xstepsize: 2.0000000000000001e-09
# ystepsize: 2.0000000000000001e-09
# zstepsize: 6.9999999999999996e-10
# xmin: 0
# ymin: 0
# zmin: 0
# xmax: 7.0000000000000005e-08
# ymax: 7.0000000000000005e-08
# zmax: 3.4999999999999999e-09
# valuedim: 3
# valuelabels: Magnetization_x Magnetization_y Magnetization_z
# valueunits: A/m A/m A/m
#
# End: Header
#
# Begin: Data Text
 -0 0 -0
 0 0 -0
 -0 -0 0
 -0 0 0
 0 0 0
 -0 0 -0
 0 0 0
 0 -0 0
 -0 0 0
 0 0 0
 0 0 0
 -0 -0 0
 0 0 0
 1272.3149209079581 -35095.212839246036 -999383.16338154813
 4090.5738805260976 -34820.8513988251 -999385.19876631582
 6801.5687862909217 -34582.193701790871 -999378.71227118769
 8885.2214953731018 -34514.988258805184 -999364.68239800842
 10562.621084675135 -34620.330414447664 -999344.7171811217
 12158.244702991593 -34873.785960969326 -999317.76534718473
 14005.157173024951 -35253.502759120493 -999280.26404796541
 16382.901392444652 -35719.366959037361 -999227.5653553654
 18972.940929634624 -36119.429235020652 -999167.36052786314
 0 0 0
 -0 0 -0
 -0 0 -0
 -0 0 0
 0 -0 0
 -0 0 0
 -0 -0 0
 0 0 0
 0 -0 0
 0 -0 -0
 0 -0 0
 -0 -0 0
 0 0 -0
 -0 -0 -0
 -0 -0 -0
 -0 -0 -0
 -0 0 -0
 0 0 -0
 0 0 -0
 -0 -0 0
 0 0 0
 0 0 -0
 0 0 0
 -3581.9277570936842 -32661.432825190564 -999460.05452911847
 -1068.4262000181702 -31886.713123545949 -999490.91841378517
 801.08932813535489 -30649.615882126505 -999529.86913957016
 2371.6602784938927 -30166.745178580346 -999542.06650488393
 4870.6308664461267 -29092.853969616292 -999564.84672224498
 7215.6492639692187 -28450.329159120942 -999569.16377829353
 9084.7004517895621 -28204.86921552111 -999560.88037209457
 10633.416207045242 -28235.514058555527 -999544.73947173392
 12122.907550859833 -28479.373792191334 -999520.86540547933
 13832.489413357423 -28936.756063886609 -999485.53085331293
 16005.355821810628 -29673.882272928302 -999431.48304216901
 18563.084063063794 -30747.988156887022 -999354.77841173683
 20639.414963340128 -31422.952937435341 -999293.05640470807
 22412.35172647236 -33258.824256998239 -999195.44489510695
 24589.359861828216 -34474.522116687316 -999103.03307837655
 -0 0 -0
 0 -0 0
 -0 0 -0
 0 -0 -0
 -0 0 0
 -0 0 0
 -0 0 -0
 -0 0 0
 -0 0 -0
 -0 0 0
 0 -0 -0
 -0 0 -0
 -0 0 0
 -0 0 0
 -0 -0 0
 0 0 -0
 0 -0 -0
 -0 -0 0
 -8621.8868979084727 -29968.77554231765 -999513.64951100759
 -5723.329213715102 -29003.844765824946 -999562.91472398629
 -2798.0141272040419 -28154.132292930211 -999599.67784697516
 130.75627035094644 -26458.316996505055 -999649.90890036593
 2355.3782629445309 -24809.953825493227 -999689.41095943179
 4171.5171452290979 -23415.496034879954 -999717.11648353178
 6092.5585754486774 -22203.357424254165 -999734.91068837629
 7876.01742660317 -21453.455240120209 -999738.82469760871
 9384.7542533612668 -21120.334306641802 -999732.89326018491
 10697.044518528033 -21095.536598431107 -999720.23665333143
 11980.232204258473 -21319.700548843663 -999700.92748023372
 13420.308942390098 -21803.120494261006 -999672.20589781529
 15160.989526324294 -22628.639487473956 -999628.97570625099
 17168.428780045102 -23897.927033824966 -999566.973312299
 19168.654607855737 -25496.318488477766 -999491.12073297519
 21334.035484859622 -27491.502559049437 -999394.3547053769
 24133.832585707511 -29437.652930001834 -999275.22871063789
 27154.83988997445 -30577.069755501296 -999163.47885404469
 29842.068022161926 -32093.615946870963 -999039.26388887002
 -0 0 -0
 -0 -0 -0
 0 0 -0
 -0 0 0
 -0 0 -0
 0 0 -0
 0 -0 -0
 -0 -0 -0
 -0 -0 0
 0 0 0
 0 0 0
 0 0 -0
 -0 0 0
 0 0 0
 -0 -0 -0
 -11152.858779500504 -26983.480350202808 -999573.66188252228
 -7848.609244006323 -26113.97101521631 -999628.1607931779
 -4003.6592645171854 -24075.494667222512 -999702.12627013167
 -735.98178409624938 -22075.35231754907 -999756.03881690558
 1968.3548001727577 -20168.865832931486 -999794.65013091266
 4054.8795208838933 -18562.263921088856 -999819.48386205942
 5717.1398098716154 -17262.627947247125 -999834.64432312467
 7203.1585086752448 -16257.612886187284 -999841.88976594782
 8531.7010026491353 -15612.104042821842 -999841.72361697198
 9693.8121103223839 -15300.452470140743 -999835.94962422643
 10746.282268871595 -15262.366856734949 -999825.7736102466
 11792.227396547496 -15461.444626133341 -999810.92567700101
 12945.865851689752 -15906.894468732158 -999789.66551255703
 14294.114789574405 -16652.138868204438 -999759.16327558435
 15852.448748416607 -17757.637740934173 -999716.64293965849
 17594.895949695925 -19214.522575651747 -999660.55326731235
 19663.415866711734 -21013.399081266336 -999585.8077901589
 22295.746357354306 -23079.153470701109 -999484.99356891017
 25490.629902446552 -25268.655800119101 -999355.65381961572
 29208.943348214263 -27526.494088246869 -999194.24025145895
 32633.127407498996 -28510.750862145087 -999060.66686707386
 -0 -0 -0
 0 -0 0
 -0 0 -0
 -0 -0 -0
 0 -0 -0
 0 -0 -0
 0 0 -0
 0 -0 -0
 -0 0 -0
 0 0 -0
 -0 0 0
 -0 0 0
 -0 0 -0
 -12372.608084799458 -25186.187121702333 -999606.20973834011
 -9422.0970617235034 -23698.26296557848 -999674.75531763514
 -5370.9040386330653 -21174.851867353518 -999761.3610448261
 -1606.0811204121699 -18678.993690226656 -999824.24240371108
 1408.3809458469755 -16581.407627252214 -999861.52710473363
 3742.0977857738862 -14859.688022632643 -999882.58629502705
 5521.2305029283798 -13495.218056825175 -999893.69190096017
 6911.7154867274849 -12442.307800348324 -999898.70345232077
 8069.3893050083034 -11668.486430488503 -999899.36062619102
 9069.0766023708311 -11169.190212125342 -999896.49516316724
 9952.9497601088497 -10922.109469257286 -999890.81719746487
 10774.050777703129 -10895.174193696008 -999882.60061325645
 11601.59206782098 -11069.248707344581 -999871.42913203931
 12509.029518195952 -11450.553020296429 -999856.19416796241
 13557.931250284679 -12068.973965224619 -999835.24761214491
 14788.844888796892 -12959.93997029887 -999806.64631858736
 16247.245760282185 -14141.085532917388 -999768.00144091202
 18047.042867558033 -15629.342321435248 -999714.97333106701
 20350.927353985655 -17443.331987356672 -999640.72042159829
 23293.598079378953 -19603.371068231663 -999536.45062662812
 26980.714758764763 -22127.456055911684 -999391.02293326601
 31124.725596739616 -24685.245812987818 -999210.63349810289
 34395.340939440277 -26351.111693790932 -999060.84871451207
 0 -0 -0
 -0 0 -0
 0 0 0
 0 0 -0
 0 -0 0
 -0 0 0
 -0 0 0
 0 -0 0
 -0 -0 -0
 -0 -0 -0
 0 0 0
 -13134.815062816942 -24013.434045246035 -999625.34562636027
 -10328.007497056082 -22251.189380348285 -999699.06313465198
 -6370.535459940611 -19356.644435886592 -999792.3467371295
 -2487.7775538374722 -16502.549305567569 -999860.72871638485
 776.53142439987789 -14113.982385500713 -999900.09125920618
 3319.5156960318045 -12239.15423354732 -999919.58872660901
 5246.123829331882 -10791.5436944375 -999928.00779329042
 6698.9048719134844 -9689.888099092519 -999930.61296379194
 7817.0629178874724 -8869.2059672996238 -999930.11291432125
 8716.7483282047488 -8285.8851222188023 -999927.67858796869
 9475.3900227876547 -7914.9460564355759 -999923.7824018586
 10146.795646079809 -7734.7071611331176 -999918.60510905995
 10780.033135325595 -7725.6381039678836 -999912.04883304017
 11426.568158264268 -7877.4094929917383 -999903.68534164538
 12138.49571425638 -8194.0309651813586 -999892.75163806265
 12964.41509608114 -8692.8802278799449 -999878.1714661842
 13950.529869606422 -9397.6527820725842 -999858.52341145987
 15155.407112232677 -10332.236425378287 -999831.76511136733
 16672.435164266186 -11527.791393281606 -999794.54886055761
 18628.755305307786 -13031.159750262099 -999741.54577637604
 21166.808027820258 -14911.656149111821 -999664.74817750999
 24419.827348988092 -17255.357326399251 -999552.86237186287
 28370.309746100971 -20063.481141282922 -999396.10878240038
 32566.806211459007 -23040.016441082065 -999203.96355077578
 35768.385660247186 -25103.53322930522 -999044.76136290538
 0 -0 0
 0 0 0
 0 -0 -0
 0 -0 0
 0 -0 -0
 -0 -0 0
 0 -0 -0
 0 -0 0
 0 0 -0
 -14065.966116054522 -22871.315969528521 -999639.46075724903
 -11143.47732713082 -21141.450274185074 -999714.39021020615
 -7136.6000565434788 -18166.981106210464 -999809.49672281044
 -3206.9562052527299 -15142.848612570346 -999880.19760759047
 163.96482019821653 -12557.04205115144 -999921.14379608131
 2856.3388637563021 -10511.010888118864 -999940.67822966632
 4917.377032146228 -8950.5908200273079 -999947.85180383094
 6463.5520212546189 -7778.6198173071707 -999948.85647667304
 7620.4764364474531 -6909.2911627141002 -999947.0936177125
 8500.6709812247864 -6278.1901028681723 -999944.15990189207
 9195.3697350790899 -5841.3248280323678 -999940.66028924368
 9772.2204096006808 -5570.2683159692124 -999936.73590840446
 10282.150277976436 -5445.1003288794363 -999932.31184319151
 10768.379126787437 -5451.9749250742052 -999927.1563370995
 11271.791270256794 -5584.5034154579853 -999920.87689134816
 11832.559451570707 -5845.3142820714156 -999912.90762634366
 12490.783688602101 -6245.6133040158766 -999902.48156372772
 13289.751706159966 -6803.0327100471095 -999888.54441159312
 14284.254718350781 -7540.9598307845245 -999869.53848588234
 15550.666378203789 -8493.0559576309643 -999843.01006492751
 17190.063860619463 -9710.2805673740695 -999805.08708236262
 19324.013951227327 -11267.632016049634 -999749.78017180064
 22080.154802470035 -13263.095039277017 -999668.22349911579
 25540.274199255273 -15783.297709560715 -999549.18933849281
 29636.504546259468 -18809.900352145149 -999383.74273700383
 33943.975392550019 -21971.065746789911 -999182.20500792563
 37272.010479585348 -24127.428520073245 -999013.84596401814
 0 -0 0
 0 -0 0
 0 0 -0
 0 0 -0
 0 0 -0
 0 -0 0
 -0 0 -0
 -15831.478511502846 -21189.54715546441 -999650.12248260446
 -12459.796289465083 -19847.985614460576 -999725.36776030296
 -8125.9666923546547 -17095.943804830455 -999820.83263489592
 -3977.8635184130321 -14142.17680581465 -999892.08189535234
 -451.99763122488463 -11523.205479572745 -999933.50350591657
 2373.7063120654079 -9394.1006238811206 -999953.05709408794
 4556.7983306921105 -7743.2085363719825 -999959.63834073604
 6202.1227991852584 -6497.5510084954394 -999959.65693805669
 7425.2093082536503 -5572.9184762254881 -999956.90349453862
 8333.0519448860723 -4897.02337339121 -999953.28861270542
 9016.5289444652863 -4415.1660336093255 -999949.60298741527
 9548.6206020438403 -4088.9333576905356 -999946.05077903811
 9985.7452902763289 -3892.5409617472951 -999942.56485853158
 10372.053659518786 -3808.8462442875798 -999938.95473332342
 10744.504318022344 -3827.1900528627889 -999934.95200600883
 11136.695778261124 -3943.0368774498102 -999930.2107983965
 11581.227108882493 -4158.160754743396 -999924.28957286046
 12111.714972937483 -4480.4803342595342 -999916.61235144443
 12765.994512612597 -4923.748472830729 -999906.38866099878
 13591.245429729654 -5508.4113505005171 -999892.46194381453
 14649.701732134541 -6264.870531897127 -999873.06076140387
 16022.244907849388 -7238.4167697547828 -999845.43455015088
 17808.899951317493 -8494.0932400632664 -999805.32778264058
 20124.195245932158 -10117.344696444168 -999746.29586810537
 23080.578679021779 -12201.085351784386 -999659.15211339924
 26753.403282172541 -14806.206937428467 -999532.40650263429
 31099.240523107259 -17861.13798553243 -999356.70157794398
 35732.531217758187 -20932.776701431259 -999142.13456962176
 39481.040532310952 -22843.572055872752 -998959.1676611281
 0 0 0
 0 0 0
 -0 0 0
 0 -0 0
 -0 0 -0
 -18967.425447524958 -18266.960751613409 -999653.21732928534
 -14956.202368650882 -17902.670454407154 -999727.86617224431
 -9910.3589356417997 -15774.351479859824 -999826.46225290373
 -5213.5877029111116 -13154.434777372569 -999899.88466293551
 -1312.9743650191799 -10686.637449891403 -999942.03425915213
 1763.7526561153647 -8599.7357226137083 -999961.46611860476
 4122.1835918480665 -6932.9466413827149 -999967.47039756412
 5894.899770458389 -5647.8193705472968 -999966.67559126881
 7208.0394397871742 -4680.1422540200001 -999963.06953602866
 8172.0701317765443 -3964.4994392988183 -999958.74915616261
 8879.4821962437691 -3445.2806551444351 -999954.6413898652
 9405.3578602838897 -3079.6818297994082 -999951.02620245703
 9809.2805318266746 -2836.8404739625171 -999947.86381669575
 10138.029199655075 -2695.5308619060161 -999944.97572482435
 10428.944931308759 -2641.7584009245174 -999942.12743546849
 10713.348558678246 -2667.1511870269487 -999939.05337635742
 11019.392750945528 -2768.2483170651744 -999935.45280915778
 11374.307818622528 -2946.28366905645 -999930.96988451574
 11806.541008446129 -3207.1472984564462 -999925.15709708084
 12348.441212658616 -3561.6448261616588 -999917.41193248029
 13039.775325806393 -4026.575251026919 -999906.87113910785
 13931.631499804571 -4627.0426113219801 -999892.24425456312
 15089.885515250029 -5399.6911034880413 -999871.56109728606
 16597.810449415058 -6395.8368790585992 -999841.79046432255
 18557.246996310641 -7682.298444529808 -999798.28509281157
 21086.844314514972 -9335.8441575254565 -999734.05814282503
 24314.646025138358 -11424.849821242982 -999639.07026247936
 28352.230667389595 -13963.688715848986 -999500.45843592798
 33206.130724489398 -16805.931875925115 -999307.21679375949
 38511.950217602054 -19399.327221333559 -999069.81527508702
 42942.229771433515 -20444.992403646072 -998868.34327045933
 0 0 0
 -0 -0 -0
 0 -0 -0
 0 0 -0
 -17936.967620043069 -15755.049330794176 -999714.98118872952
 -12902.708913577824 -14239.660330718205 -999815.35904203716
 -7390.3196295719008 -12067.161085647565 -999899.87838738412
 -2782.5804785921459 -9872.4409461600808 -999947.39469416323
 789.06156070592453 -7931.8257883549859 -999968.23125613155
 3475.9778168055236 -6328.6267295144471 -999973.93269121565
 5465.7787209390499 -5057.8055776596239 -999972.27154842264
 6923.2044206549926 -4078.6687718198655 -999967.71632968192
 7981.2120480243411 -3340.4344802056953 -999962.57017536811
 8744.6019227573743 -2794.4884632518329 -999957.86049785186
 9295.404385379974 -2399.7717379775181 -999953.91721464717
 9697.6583701151303 -2124.248264860234 -999950.72028147744
 10001.361773938239 -1944.3309858648208 -999948.09482276847
 10245.839355365561 -1843.4805242071106 -999945.81070949079
 10462.763896734619 -1810.7279448579488 -999943.62432886718
 10678.829926725652 -1839.5657179017342 -999941.28757110809
 10918.016406916984 -1927.3139375659798 -999938.53930065338
 11203.532251382139 -2074.8569008687273 -999935.08581004059
 11559.722536695524 -2286.6577736182912 -999930.56959525985
 12014.259734828511 -2571.1191397352259 -999924.52060612733
 12600.799348740155 -2941.4900175511157 -999916.28024162573
 13362.044501589313 -3417.4448516198372 -999904.88389517542
 14353.09170434264 -4027.1465525580043 -999888.87925067521
 15645.122149103179 -4809.2037715209935 -999866.04188362334
 17329.631327975425 -5813.3657067579225 -999832.93037246785
 19523.248655778549 -7097.9883093380577 -999784.20737871481
 22372.049558038052 -8721.0251009833119 -999711.67599451425
 26047.910537382755 -10717.770688214079 -999603.23916447524
 30705.679700311342 -13049.839210098353 -999443.27649483574
 36273.622750857336 -15488.820896213678 -999221.85760709515
 41499.201553226732 -17368.289700219895 -998987.56688125699
 -0 0 -0
 -0 -0 -0
 0 0 -0
 -21374.19529811346 -13302.532544112482 -999683.04297075642
 -16920.6866473101 -12929.319105194521 -999773.23582443385
 -10800.901785931839 -11102.872815411032 -999880.02617106785
 -5224.6282177113608 -9118.3793885130581 -999944.77768390486
 -849.82402524268844 -7330.9865396844098 -999972.76684691815
 2405.2360558566584 -5826.6028217356652 -999980.13257217954
 4775.2839037614895 -4609.4668705818685 -999977.97449684259
 6482.1596464200329 -3651.8522410456794 -999972.32240773935
 7702.0237911926424 -2914.8081792732187 -999966.09078648151
 8567.856468102651 -2358.3607725805514 -999960.5142054403
 9178.937970812407 -1946.4950316783138 -999955.97815844859
 9609.6871225303057 -1649.2609774615044 -999952.46579606738
 9916.4424523411672 -1443.1869316689181 -999949.78942973411
 10142.436309447939 -1310.7636703480323 -999947.70507477492
 10321.50056907092 -1239.5365158102347 -999945.96362764959
 10480.944535553786 -1221.1706556617569 -999944.32772223512
 10643.865934887735 -1250.7100369230814 -999942.57027209492
 10831.056913540562 -1326.1076520135321 -999940.46304999117
 11062.671664028056 -1448.0151747319801 -999937.75833684159
 11359.862648917333 -1619.8163623489097 -999934.16269049933
 11746.599020358535 -1847.9422158635816 -999929.29876117839
 12251.834443678556 -2142.5435428734891 -999922.64803830278
 12912.142164231038 -2518.5489250405167 -999913.46300369571
 13774.977909637959 -2996.9915175415267 -999900.62907542626
 14902.902022182667 -3606.2904499179717 -999882.44218033354
 16379.295150092274 -4382.9227947613472 -999856.244006188
 18316.156104424877 -5370.6035032816808 -999817.82092717732
 20863.831354106478 -6616.591152680413 -999760.43193494389
 24218.617229053536 -8162.5646230707862 -999673.36221302161
 28609.311803559667 -10024.626324934188 -999540.40145717596
 34187.137595387409 -12146.234626381609 -999341.63758318149
 40540.089401509955 -14234.184323052685 -999076.51816463738
 45667.287836615607 -15100.348213472167 -998842.56932986144
 -0 -0 0
 0 0 -0
 -20621.071227681445 -11169.874841832709 -999724.96483654971
 -15180.534770772358 -10181.723026673935 -999832.92798361159
 -8798.2783696874412 -8505.8639481235277 -999925.11748441716
 -3412.460455677834 -6838.2172187282176 -999970.79652303248
 673.02672936447937 -5409.8835356592144 -999985.13998716616
 3640.9641502786139 -4248.2550852266031 -999984.34773189679
 5755.0928538397102 -3327.0138909880829 -999977.90469830506
 7244.9633165963869 -2609.2064838367028 -999970.35083449632
 8286.4423413529312 -2058.6219501897594 -999963.54781011376
 9008.6405010931376 -1643.0880707507265 -999958.07144995511
 9505.3975138227925 -1335.4797563645648 -999953.93089478102
 9845.2953489418796 -1113.8577037066825 -999950.91353551357
 10079.164591089208 -961.14627407508863 -999948.74200580188
 10245.44504108635 -864.55634155511837 -999947.14030204737
 10374.002855353485 -814.9162097290282 -999945.8565224061
 10488.913924647009 -806.0430594202287 -999944.66495865036
 10610.5718269523 -834.24508658872219 -999943.35829617921
 10757.369644028779 -897.99520187864118 -999941.73460405134
 10947.156017762012 -997.78375285796835 -999939.58027608122
 11198.652163525661 -1136.1547615987172 -999936.64766427968
 11533.01025090242 -1317.9468308004014 -999932.62407559436
 11975.688250651312 -1550.7680424040304 -999927.08634650079
 12558.836162962458 -1845.7080209489259 -999919.43125240516
 13324.472407546979 -2218.2278630667915 -999908.76478817209
 14328.892433162726 -2689.0891134918797 -999893.72017298848
 15648.948729440403 -3285.1018872232985 -999872.15108195413
 17390.915096552104 -4039.3909311314933 -999840.60699343972
 19702.053712885951 -4990.7236946589992 -999793.43954463839
 22781.913241241848 -6180.8221892046031 -999721.35211074387
 26878.679014436915 -7645.751122145266 -999609.46329264878
 32214.211135832338 -9384.0866954137036 -999436.93323680479
 38641.852518539847 -11230.958525216287 -999190.00835904083
 44438.314553154989 -12526.327779224226 -998933.59504625865
 0 0 0
 -0 -0 0
 -19183.086498614441 -9615.0604260647651 -999769.75339594542
 -13369.601951178942 -8137.6114852035589 -999877.50900947012
 -7055.4828363248062 -6508.9557991917272 -999953.92576675781
 -1936.90354411147 -5098.6566342741307 -999985.12594197458
 1863.5867099226521 -3961.5035711364098 -999990.4167210958
 4582.5022995472882 -3068.0255350424763 -999984.79383038171
 6490.7730466910562 -2374.1140603333852 -999976.11643863027
 7813.7367479893528 -1839.7992870353708 -999967.77980923804
 8721.2232489080998 -1432.3298776822601 -999960.94358538056
 9336.52172194778 -1125.5255165861149 -999955.78029953246
 9748.1869827339215 -898.67436986166433 -999952.08146937052
 10020.103148652654 -735.60296794301644 -999949.5269368171
 10199.024804856537 -623.9243363321782 -999947.79394298978
 10319.950622066161 -554.40075488805837 -999946.59420339088
 10409.901145086957 -520.39512972224952 -999945.68009820313
 10490.604386394747 -517.41687656659656 -999944.83822828124
 10580.467451707033 -542.77792746368561 -999943.87797547143
 10696.109094571855 -595.36933345245927 -999942.61774643522
 10853.66460012174 -675.56286561456147 -999940.86904154613
 11070.043499098483 -785.24313685206698 -999938.41686883103
 11364.311232224369 -927.98205303123734 -999934.99352684245
 11759.376963600396 -1109.3690687535284 -999930.24074367166
 12284.212985447846 -1337.5003229532526 -999923.65168757469
 12976.924258660147 -1623.6095991814516 -999914.4780073216
 13889.134305752368 -1982.8077222612421 -999901.57536718249
 15092.321693643989 -2434.9003509439131 -999883.1397149252
 16686.793647479921 -3005.2854501125157 -999856.24925642693
 18813.474530238203 -3725.9449666126193 -999816.06833967508
 21666.212814406968 -4636.260896519806 -999754.51002092543
 25493.350452848434 -5781.6130481419805 -999658.27262782666
 30545.917029632335 -7200.0606703645099 -999507.43172782939
 36808.600814637306 -8860.5881847004748 -999283.05143392168
 42809.838488513662 -10422.285665811458 -999028.87530345586
 -0 0 -0
 -23120.634886909997 -8399.4401249701732 -999697.39703973092
 -18420.379553784136 -7862.97025038636 -999799.4115401028
 -11771.44580613656 -6310.6664958270658 -999910.80029771244
 -5604.0656443868093 -4869.1803950071317 -999972.44238555618
 -766.15270695365905 -3725.1571273733089 -999992.76808105269
 2778.5807250351963 -2845.337945003334 -999992.0917392961
 5290.7345074172954 -2173.2659601679266 -999983.64238793356
 7036.5988026729474 -1660.6064272718231 -999973.86399024632
 8232.4381666948757 -1270.2825899828044 -999965.3060701522
 9040.0975051588575 -974.56205142048407 -999958.66257856134
 9576.6416774628415 -752.67999867617232 -999953.85963903402
 9925.8045870369297 -588.98376928541938 -999950.56452877668
 10147.656892810062 -471.64561127310702 -999948.3999737202
 10285.882613407613 -391.78211323325348 -999947.02215949376
 10372.988117180887 -342.83083982284074 -999946.14034183649
 10433.961606761011 -320.09115866520449 -999945.51350903034
 10488.853071343157 -320.38274816287304 -999944.93914222217
 10554.641127274883 -341.80201904116768 -999944.23980642762
 10646.660604708064 -383.5688745399147 -999943.24913611321
 10779.801541932859 -445.96168046828922 -999941.79680464196
 10969.655978070166 -530.34278760281143 -999939.69087352999
 11233.780074520824 -639.28109071072117 -999936.69474868476
 11593.25586597843 -776.78019888614494 -999932.49423696031
 12074.78600722963 -948.61979903758925 -999926.6471413573
 12713.64444792611 -1162.8181741722872 -999918.50222842942
 13557.936207364204 -1430.2352424583594 -999907.06407793134
 14674.761087197439 -1765.3711019313635 -999890.76145942358
 16158.92035878459 -2187.4844008774444 -999867.04326367041
 18144.41876937238 -2722.2445195229243 -999831.6705587483
 20817.231492057996 -3404.1429945958798 -999777.50258919015
 24421.788898379571 -4279.4563035407 -999692.58398807212
 29234.342562480473 -5407.2821384440294 -999557.95955753117
 35411.873967127292 -6843.6591659392416 -999349.3700960424
 42426.038087491892 -8502.7614447008564 -999063.42858700082
 48075.566260931555 -9476.9918778851825 -998798.74176614638
 -23011.78587146959 -5767.548427782921 -999718.55694297235
 -17390.529823247238 -5331.2876823152228 -999834.55973681726
 -10488.41931534952 -4364.5151199226748 -999935.46995195327
 -4496.1204031524467 -3384.9865505500684 -999984.16325828549
 108.29626676143572 -2577.4116356720192 -999996.67260505364
 3451.3977233457258 -1951.7652239165168 -999992.13920223701
 5805.0511696975918 -1475.8239313558106 -999982.06150142534
 7429.2347512376009 -1115.3474092429094 -999971.78083742305
 8531.7011358251693 -842.70016276205126 -999963.24929077493
 9267.1491971912692 -637.15106426916566 -999956.8560614395
 9747.2645128422773 -483.4348860163808 -999952.37742865912
 10051.813809003386 -370.3088827065925 -999949.4106756004
 10237.901458610853 -289.4612436881531 -999947.54941742425
 10346.939695970996 -234.75163274327477 -999946.44143103913
 10409.65462210053 -201.69098047660498 -999945.79773675569
 10449.609802370433 -187.08118796824712 -999945.38383634086
 10485.686200219923 -188.76381789413205 -999945.00586438843
 10533.866128788983 -205.44964769433284 -999944.49618707492
 10608.58561638412 -236.6150744057463 -999943.69937738311
 10723.860302137571 -282.4597225144725 -999942.45786281372
 10894.357054763244 -343.92489607060253 -999940.59558557242
 11136.575726762725 -422.77647152400431 -999937.89704217995
 11470.323918840773 -521.75869824751442 -999934.07754564378
 11920.716059914717 -644.82874135240183 -999928.73782310751
 12521.011316864364 -797.48903118290991 -999921.29104587436
 13316.720932118895 -987.25188446401569 -999910.84116401733
 14371.540613225181 -1224.3041162205348 -999895.97453926841
 15775.709306147017 -1522.4871080328326 -999874.39662634337
 17657.096742062171 -1900.7383723955229 -999842.29462864832
 20193.91228038086 -2385.0241607130411 -999793.23740789772
 23623.157675001097 -3010.0550870866932 -999716.40278122609
 28223.901552142179 -3816.8537237932437 -999594.33922408044
 34207.49843608457 -4828.7110123401944 -999403.08714787604
 41307.852891732524 -5940.9857205152948 -999128.80349739862
 47516.965456046637 -6665.1273251912271 -998848.19370692549
 -22849.019603159177 -3329.5065771236177 -999733.38280219852
 -16798.172588691705 -3112.2274832293524 -999854.0570692172
 -9715.0220742199199 -2630.6573504242647 -999949.3477111737
 -3782.4175189895668 -2085.5644246016009 -999990.671825864
 690.03482386594669 -1601.56273120535 -999998.47942322376
 3904.0634681190522 -1212.550875391868 -999991.64396949427
 6151.5259448713896 -912.31630423947979 -999980.66301679576
 7693.0755138004815 -684.13429305635896 -999970.17382990394
 8732.1600784142447 -511.72403889977738 -999961.74302763864
 9418.8485859740013 -382.03210590870839 -999955.5686843216
 9861.0563700893254 -285.25255181529303 -999951.33791512449
 10135.716820837515 -214.16985783153436 -999948.60936740134
 10297.83905494719 -163.49744305041139 -999946.96248320327
 10387.267625341368 -129.36937922079653 -999946.04251171637
 10433.528321907765 -108.98219505233216 -999945.56332314271
 10459.239836906501 -100.34918402541292 -999945.29561975296
 10482.514138727054 -102.13377359474434 -999945.05172335519
 10518.679427523963 -113.53991017109168 -999944.67071522982
 10581.580823525905 -134.24716913859626 -999944.00449473818
 10684.658146084512 -164.38485344309089 -999942.90389897849
 10841.96897453195 -204.5438115825504 -999941.20320676069
 11069.318519147322 -255.82779710916782 -999938.7004910151
 11385.676291414762 -319.94906952719816 -999935.12989992509
 11815.106205265327 -399.37667021017472 -999930.11944017024
 12389.514592728669 -497.55289091208323 -999923.12322961993
 13152.628668311929 -619.20606264722835 -999913.30871379317
 14165.737679485141 -770.80569237320481 -999899.36380346818
 15515.79180706041 -961.21600676065123 -999879.160833142
 17326.248335379769 -1202.5544109643574 -999849.16611532448
 19769.96220562778 -1510.9865373173564 -999803.41343389696
 23079.609723832036 -1906.2078983159513 -999731.81303109683
 27538.963721800825 -2405.4046441930059 -999617.83672843035
 33398.804083452014 -3000.2941216332324 -999437.60091412347
 40519.043510667427 -3599.0512213272068 -999172.28441509872
 46982.278512913661 -3969.6261929572192 -998887.83533168677
 -22735.585927805521 -1493.7880489779097 -999740.39716807671
 -16518.718943941149 -1409.0148797797938 -999862.56385641312
 -9332.9595992329523 -1216.5133584301252 -999955.70699924894
 -3403.9398426493549 -982.13670676830532 -999993.72428082628
 1012.7688936602767 -761.73355059029495 -999999.19703026058
 4160.97452477146 -578.40234286302723 -999991.17583193409
 6350.0134054934088 -434.46718198361719 -999979.74407885759
 7844.6107710294682 -324.31316963223804 -999969.17797641095
 8847.2627944539872 -240.92931465312139 -999960.8331800357
 9505.8620042957282 -178.22188574939645 -999954.80239084538
 9926.2545240136442 -131.47068207022451 -999950.72487927356
 10183.7326041421 -97.171569427177616 -999948.13972922275
 10332.074634523038 -72.759631469780544 -999946.62004518148
 10410.208555483754 -56.367529417320156 -999945.81072202744
 10446.966199645269 -46.647397911410692 -999945.42787156301
 10464.425752186995 -42.6474776969335 -999945.24548840674
 10480.262256995466 -43.729050806810179 -999945.07958727155
 10509.433236351564 -49.512591291766725 -999944.7731557748
 10565.448959233065 -59.846325939696079 -999944.18229554547
 10661.42269969227 -74.793875805451421 -999943.16262070334
 10811.066493478196 -94.639971122573129 -999941.55423432088
 11029.791707693532 -119.91506597248981 -999939.16280704888
 11336.092106043017 -151.44127653537683 -999935.73297552636
 11753.432176317343 -190.40442240223544 -999930.90790225728
 12312.938551133338 -238.46072574443937 -999924.16446484497
 13057.297150930806 -297.89266439609219 -999914.70548795944
 14046.3805396928 -371.83404009412885 -999901.27559333621
 15365.215995787828 -464.57809464016594 -999881.84017142572
 17134.786343727948 -581.92590063311866 -999853.01942795608
 19525.318175004952 -731.31941835068187 -999809.09533874167
 22768.549268610201 -920.88577136131448 -999740.33885484433
 27154.558375398225 -1155.1009462509376 -999630.5796149103
 32959.492454152198 -1422.8627493096142 -999455.67551480816