# OOMMF OVF 2.0
#
# Segment count: 1
#
# Begin: Segment
# Begin: Header
#
# Title: Oxs_TimeDriver::Magnetization
# Desc: Oxs vector field output
# Desc:  MIF source file: /mnt/gpfs/work/plgrid/groups/plggspinsym/MF/switching-obrazki/p-ap/Anisotropy.mif
# Desc:  Iteration: 43800, State id: 306750
# Desc:  Stage: 0, Stage iteration: 43800
# Desc:  Stage simulation time: 6.44817e-09 s
# Desc:  Total simulation time: 6.44817e-09 s
# meshunit: m
# meshtype: rectangular
# xbase: 1.0000000000000001e-09
# ybase: 1.0000000000000001e-09
# zbase: 3.4999999999999998e-10
# xnodes: 35
# ynodes: 35
# znodes: 5
# xstepsize: 2.0000000000000001e-09
# ystepsize: 2.0000000000000001e-09
# zstepsize: 6.9999999999999996e-10
# xmin: 0
# ymin: 0
# zmin: 0
# xmax: 7.0000000000000005e-08
# ymax: 7.0000000000000005e-08
# zmax: 3.4999999999999999e-09
# valuedim: 3
# valuelabels: Magnetization_x Magnetization_y Magnetization_z
# valueunits: A/m A/m A/m
#
# End: Header
#
# Begin: Data Text
 -0 0 -0
 0 0 -0
 -0 -0 0
 -0 0 0
 0 0 0
 -0 0 -0
 0 0 0
 0 -0 0
 -0 0 0
 0 0 0
 0 0 0
 -0 -0 0
 0 0 0
 24043.088835120074 33831.182022339926 -999138.31925426505
 21593.843531491257 33332.38610447976 -999211.01773255062
 19237.007738723318 32810.778155027649 -999276.43341075617
 17398.930767175392 32480.445270594919 -999320.91836565849
 15840.553909451479 32377.494277127098 -999350.17622261751
 14240.030653533908 32504.763461584062 -999370.13257315871
 12264.236672110179 32866.063820836891 -999384.51576346473
 9637.5205348780401 33429.139738105594 -999394.62216599379
 6733.2000564440314 33971.427378708388 -999400.12314330507
 0 0 0
 -0 0 -0
 -0 0 -0
 -0 0 0
 0 -0 0
 -0 0 0
 -0 -0 0
 0 0 0
 0 -0 0
 0 -0 -0
 0 -0 0
 -0 -0 0
 0 0 -0
 -0 -0 -0
 -0 -0 -0
 -0 -0 -0
 -0 0 -0
 0 0 -0
 0 0 -0
 -0 -0 0
 0 0 0
 0 0 -0
 0 0 0
 28909.249595002148 31728.643413857226 -999078.34951767954
 26788.603278141127 30435.276411468709 -999177.69424870762
 25124.266689091193 28631.773689205922 -999274.23301051138
 23447.355014672081 28087.190102606375 -999330.44149318093
 21164.848112800588 26951.036548011783 -999412.67294013733
 19116.81826492113 26160.851023911702 -999474.94072294317
 17479.095006020245 25737.122613262884 -999515.92371375451
 16063.4597897555 25613.494434629632 -999542.8525893375
 14614.537138790911 25767.935007415617 -999561.11810617766
 12873.398721863598 26232.870285487708 -999572.96488147019
 10647.286335537139 27085.795342648446 -999576.40777698695
 8143.1212830042605 28311.937378497849 -999565.96769680316
 6435.5042407515475 28900.41286303235 -999561.57910431572
 4426.9825281728836 30661.373700880136 -999520.02580662188
 1759.1415883214775 31946.397254425108 -999488.03550784674
 -0 0 -0
 0 -0 0
 -0 0 -0
 0 -0 -0
 -0 0 0
 -0 0 0
 -0 0 -0
 -0 0 0
 -0 0 -0
 -0 0 0
 0 -0 -0
 -0 0 -0
 -0 0 0
 -0 0 0
 -0 -0 0
 0 0 -0
 0 -0 -0
 -0 -0 0
 33768.414245384934 29262.036332444462 -999001.21492870606
 31177.189708750371 27670.757886260941 -999130.77822668676
 28374.892091939069 26496.855308985065 -999246.10690135078
 25731.023114744905 24472.103711094882 -999369.31641381804
 23715.499428430645 22491.851894784595 -999465.70310601615
 21983.272466380571 20970.100926837327 -999538.38875692373
 20237.777208894757 19714.516960255365 -999600.8054191767
 18683.089545314084 18892.969302352161 -999646.93661111267
 17376.358214956919 18456.044552727264 -999678.66666977212
 16209.62262719721 18330.311426912303 -999700.57908219518
 15020.31918054957 18490.906504036735 -999716.19792237703
 13646.498723631197 18970.608064094362 -999726.90726131015
 11985.449529488569 19847.733985936124 -999731.17209337815
 10112.888408063998 21164.223782582667 -999724.86471014947
 8256.4701198718594 22720.46315074811 -999707.76292643393
 5988.4058646129561 24713.562379274448 -999676.63713309134
 2985.097601960354 26785.229829581254 -999636.75435394212
 -101.88337140463639 27980.102111308937 -999608.47510693863
 -3307.2032525935388 29529.417797017362 -999558.44045819307
 -0 0 -0
 -0 -0 -0
 0 0 -0
 -0 0 0
 -0 0 -0
 0 0 -0
 0 -0 -0
 -0 -0 -0
 -0 -0 0
 0 0 0
 0 0 0
 0 0 -0
 -0 0 0
 0 0 0
 -0 -0 -0
 36152.772966986275 25737.729859572712 -999014.78781270958
 33023.271833000465 24649.964846495968 -999150.56060160918
 29477.770491173567 22268.801149144881 -999317.34776408714
 26464.919899924636 20019.080553117725 -999449.27056279255
 24023.041580294615 17925.811915957285 -999550.67842525395
 22152.754432868558 16159.766869135883 -999623.98801037809
 20648.290381546736 14776.666054966745 -999677.59715051099
 19331.220470832021 13732.958317468125 -999718.81535307667
 18187.879358948201 13041.463884561954 -999749.52926429105
 17200.077189301173 12663.496774439789 -999771.87057554559
 16296.512159518432 12553.781979114143 -999788.39073548734
 15378.272870437439 12696.00967481003 -999801.14025833132
 14347.429935910397 13110.891196058734 -999811.1100534338
 13135.970573998131 13845.093335058727 -999817.86324691318
 11729.854416389006 14932.151136033093 -999819.70443566516
 10109.555550433935 16349.728005262548 -999815.22456938343
 8057.9030180840027 18146.600953332108 -999802.86610550969
 5365.4692877054904 20281.341385434022 -999779.91524681577
 2039.5432762731325 22568.571497680248 -999743.21695312252
 -1985.0445592546132 24994.916056319958 -999685.60746338416
 -5609.6239996435042 26118.686020538742 -999643.10949415492
 -0 -0 -0
 0 -0 0
 -0 0 -0
 -0 -0 -0
 0 -0 -0
 0 -0 -0
 0 0 -0
 0 -0 -0
 -0 0 -0
 0 0 -0
 -0 0 0
 -0 0 0
 -0 0 -0
 37391.543718997244 23629.77520047198 -999021.2741389873
 34481.291329835745 21891.743667235827 -999165.54789856274
 30628.627045490161 19217.261957467381 -999346.07821723423
 27170.489978264395 16597.195568570842 -999493.02027257776
 24450.865001919854 14403.076904455709 -999597.27219332778
 22376.879822566625 12605.143240317673 -999670.13840231195
 20811.00863280159 11175.904825488287 -999720.96160429541
 19593.212519177272 10079.779938317823 -999757.22255934402
 18595.408251620127 9274.9435934742287 -999784.0697937198
 17753.872335341381 8737.4938870822261 -999804.20894176757
 17022.746825132359 8437.7161034999899 -999819.49922847783
 16346.410149082038 8349.3740853908312 -999831.52722227166
 15660.204146285199 8463.1401949246483 -999841.55407951388
 14899.844326288459 8790.7297334388313 -999850.34765699098
 14010.399931690577 9359.0861953598724 -999858.04802448943
 12945.057337965854 10196.103519272896 -999864.22326410934
 11633.257852389321 11323.542719524572 -999868.2136621899
 9931.6385491000347 12785.992249034185 -999868.93188954401
 7670.2561013025052 14623.912614371457 -999863.64487923426
 4697.7266584278632 16864.61086670493 -999846.74638894398
 885.29309845870489 19543.066255383357 -999808.62409636541
 -3420.6725871062358 22282.617035934178 -999745.85969489359
 -6835.7058660791727 24027.413618533592 -999687.92956608045
 0 -0 -0
 -0 0 -0
 0 0 0
 0 0 -0
 0 -0 0
 -0 0 0
 -0 0 0
 0 -0 0
 -0 -0 -0
 -0 -0 -0
 0 0 0
 38306.535133689416 22389.878077057805 -999015.16641427716
 35448.521659979779 20286.484940357266 -999165.58229398925
 31576.348415027704 17233.483562188005 -999352.761173493
 27923.128706407184 14353.361116690474 -999507.0184385397
 24950.219396667879 11973.100495296792 -999616.99236086814
 22685.79652529785 10103.897485588643 -999691.58538601978
 20998.129833046816 8651.7714611248484 -999742.07943554071
 19741.217393660492 7536.1496157378842 -999776.72046551725
 18784.923210887824 6696.7970542974381 -999801.12000796176
 18029.079029445573 6088.7769832659842 -999818.92315768776
 17407.32428729485 5681.6767260453771 -999832.33775005396
 16870.635685523055 5451.6377002458221 -999842.81829593156
 16373.37965223559 5382.0409086285481 -999851.46200544294
 15869.093259022411 5467.405095078203 -999859.129758119
 15311.231331015799 5714.8493206036646 -999866.44442764006
 14653.578842836243 6141.8799468198031 -999873.76700152282
 13844.981956539918 6772.3510186677668 -999881.21881366638
 12814.011295646593 7636.8058420806074 -999888.73396545753
 11452.321407309562 8781.8834253604546 -999895.85600595782
 9621.1507335339247 10270.237944379744 -999900.97293238412
 7162.6993847962194 12183.849933746998 -999900.11978112836
 3926.7333517355478 14617.752709615244 -999885.44447396835
 -75.819664575341875 17555.467375403055 -999845.88803305547
 -4406.5410477072182 20652.48560987258 -999777.00375340146
 -7788.3335881853336 22734.626027297872 -999711.1976162506
 0 -0 0
 0 0 0
 0 -0 -0
 0 -0 0
 0 -0 -0
 -0 -0 0
 0 -0 -0
 0 -0 0
 0 0 -0
 39456.757140895228 21403.136160729031 -998992.02703445521
 36426.601369169621 19224.92873847414 -999151.39234637143
 32423.363193666428 16018.84287203719 -999345.8471381428
 28638.326478032741 12955.693330594409 -999505.87605419382
 25498.945036602872 10424.509410173023 -999620.49469064875
 23063.641307148788 8450.0521315776659 -999698.28701895301
 21242.016048105525 6945.225001656705 -999750.23911169346
 19899.903252380816 5805.30065550978 -999785.12308137759
 18910.829264441902 4946.5063714668331 -999808.93805329036
 18170.412180523916 4308.7197137588364 -999825.62032367336
 17599.04132739134 3850.0757018833096 -999837.71216205216
 17139.197599981791 3542.3387649738902 -999846.83814157406
 16747.255125687505 3366.3104395511332 -999854.08805474197
 16385.746337084354 3310.4258303128963 -999860.26443588536
 16019.020560671108 3371.2358548014831 -999866.00389706646
 15611.139820184004 3553.6782325499785 -999871.82362767565
 15123.607879751968 3870.4857376869609 -999878.14048755658
 14510.606291808863 4341.6723740798934 -999885.28951377247
 13710.829618117215 4996.3050419563442 -999893.51937449374
 12639.319599787401 5877.4708020729913 -999902.84674913576
 11185.243592781273 7046.572359732424 -999912.61425374018
 9213.6343321281056 8587.9838871491902 -999920.6745913137
 6578.2596097423011 10605.665829072954 -999922.12014377839
 3172.3001556810709 13182.48329482058 -999908.07509785809
 -971.24172684430937 16284.668582629023 -999866.92427475657
 -5452.3587651397784 19510.701667831323 -999794.78109476308
 -9034.6710334210966 21644.258095634672 -999724.9125688565
 0 -0 0
 0 -0 0
 0 0 -0
 0 0 -0
 0 0 -0
 0 -0 0
 -0 0 -0
 41442.759172707563 20120.335778512945 -998938.27126620442
 37925.412913882334 18195.343385409898 -999114.90457023936
 33542.732006151564 15096.201164968072 -999323.26593547827
 29480.439709124759 12027.883301768929 -999492.98831849545
 26129.99360842958 9436.1027405933473 -999614.01720818831
 23519.483347509646 7392.4284491221124 -999696.04675855895
 21553.3825497912 5831.9746661660029 -999750.68880804244
 20103.494934371141 4656.9883012915407 -999787.05830360961
 19045.287384531766 3776.2991437640635 -999811.49052869831
 18273.092657178655 3118.846335007951 -999828.16867813875
 17703.242674178942 2633.5829717006818 -999839.8168904609
 17272.236619748805 2285.2643365897507 -999848.21218476119
 16932.75620747283 2050.3267191844975 -999854.52838278562
 16648.324262209291 1913.6154860697393 -999859.57582804176
 16388.335784386472 1866.6942970616567 -999863.95969782781
 16124.451797467289 1907.3099493277964 -999868.17342237092
 15827.966561993127 2039.2536251962433 -999872.65035061562
 15467.122760291446 2272.3381618528997 -999877.79482934624
 15003.370354248484 2622.8857354690663 -999884.00294655783
 14386.307940239718 3115.4972158872597 -999891.65804148326
 13548.380612749539 3786.3623475831728 -999901.04752567655
 12400.942447803765 4687.1592255522874 -999912.11972092837
 10831.930219084066 5888.8210392075807 -999923.99264868966
 8707.9255500227155 7481.0661441997909 -999934.10066961986
 5887.6022754480991 9558.100004797001 -999936.98744658125
 2254.8044078339381 12178.934409238696 -999923.2917647924
 -2191.9945125129643 15264.379875688186 -999881.08986372373
 -7091.3761350039522 18358.715517875553 -999806.316217819
 -11212.062607471693 20213.749743837321 -999732.81129178696
 0 0 0
 0 0 0
 -0 0 0
 0 -0 0
 -0 0 -0
 44732.802799934012 17770.762987780014 -998840.91643088707
 40521.57774557409 16714.727031340899 -999038.84791197034
 35400.5207538061 14097.350898459514 -999273.77020914794
 30771.447101272206 11245.786746655551 -999463.18107459182
 27024.262132608426 8728.037055362005 -999596.67397673381
 24138.033721711956 6689.3407740066668 -999686.25480600586
 21974.916482155371 5107.8593644198445 -999745.47401741985
 20382.516202815787 3907.7470885607754 -999784.61807828094
 19224.563716119377 3006.3088960812884 -999810.67120567674
 18388.412130557816 2331.923105316484 -999828.19945926114
 17785.166059215018 1829.1899851204748 -999840.15819142014
 17346.767829149434 1457.9887575960099 -999848.47047673375
 17022.029998871356 1190.4825791716246 -999854.40602417034
 16772.446510450874 1008.1062436228561 -999858.82441465498
 16568.066835024496 899.20718619819706 -999862.33581818
 16383.874195927212 857.58717961330899 -999865.40754771663
 16196.87330111403 881.79724358904696 -999868.43320953439
 15983.671463307886 974.90068561575345 -999871.77768712246
 15718.048619345171 1144.597781231216 -999875.8087100212
 15368.046813403083 1403.8580743730224 -999880.91906969028
 14892.373230789744 1772.3390592589278 -999887.53169234691
 14236.340163376592 2278.6722972054936 -999896.06173407554
 13327.6537818631 2963.2926695030174 -999906.79192674055
 12072.119949910822 3881.1443528020959 -999919.59708689945
 10349.900816433823 5102.2834135458588 -999933.42091214145
 8014.0991531358413 6706.420218937008 -999945.39758059324
 4895.6833701385567 8764.9547427188991 -999949.60265640263
 831.1303049416091 11294.010280244045 -999935.87522110948
 -4236.989007196049 14140.859789537402 -999891.03606771363
 -9957.5055160263928 16725.38694371258 -999810.5368095903
 -14886.769965172289 17671.012125907211 -999733.02406715078
 0 0 0
 -0 -0 -0
 0 -0 -0
 0 0 -0
 43305.435442700102 14845.027725675414 -998951.58261696645
 38272.44135838317 12922.014444409047 -999183.78778639506
 32876.454590499532 10448.597276550801 -999404.80564609624
 28457.148112956012 8119.869271659376 -999562.03331473551
 25094.423247505241 6164.1039970596676 -999666.08112098556
 22608.317692496781 4609.8185676068133 -999733.77133309294
 20797.128597829407 3410.9713799472738 -999777.89769344789
 19490.205330878369 2501.0751288192955 -999806.91961966327
 18553.881871171088 1815.7931500121908 -999826.21308042679
 17886.449203880384 1301.2796421752034 -999839.17787120631
 17411.678111985992 916.03278556180089 -999847.98562044429
 17072.931371496463 629.79652585708868 -999854.04853444477
 16828.184119977745 421.44958606476132 -999858.30726131913
 16645.85030199464 276.907277218719 -999861.40989143285
 16501.278969241994 187.4458915025842 -999863.82705667336
 16373.848761100255 148.58130390075607 -999865.92851259059
 16244.586689218962 159.44672579632874 -999868.03528267576
 16094.093778007233 222.56856257639103 -999870.45691364433
 15900.492731165106 343.99234256072424 -999873.52000149211
 15637.091886227514 533.81804298175098 -999877.5907058015
 15269.568036909073 807.24037100887267 -999883.08749320765
 14752.542073545012 1186.1219385788743 -999890.47181034531
 14025.411392066839 1700.9443819715116 -999900.192330961
 13007.136332770806 2392.7339484473564 -999912.54078977974
 11589.724761832918 3313.9814310467486 -999927.34526415449
 9630.4939614722207 4526.6930141961684 -999943.37971527828
 6944.8964325901215 6094.1550455246552 -999957.31393286074
 3309.2605381781104 8058.7110854698894 -999962.05226515036
 -1490.3606429051483 10388.356348313595 -999944.92892235564
 -7420.7167213628491 12853.232596476029 -999889.85762190935
 -13162.823098595025 14764.278173292685 -999804.35895133833
 -0 0 -0
 -0 -0 -0
 0 0 -0
 47055.541884976519 12781.077134627925 -998810.50257052761
 42255.595459091339 11877.549182122699 -999036.22981242451
 36113.329735811429 9738.1991896573818 -999300.25262277143
 30741.321747698697 7585.0090411266547 -999498.59368337819
 26625.904798922329 5733.8893367784749 -999629.0230414042
 23614.320390929566 4235.864103286056 -999712.16924061358
 21450.195905234446 3062.4571484010967 -999765.22766689642
 19908.275404496919 2160.6455091518533 -999799.47598576103
 18815.509004717289 1474.7648944606735 -999821.8849822199
 18044.588429494466 955.49667002774527 -999836.72659815999
 17503.189501849334 562.83297423859642 -999846.64902989275
 17124.596628008057 266.19009387081809 -999853.3279102298
 16860.502441847388 43.244683048235657 -999857.85069043993
 16675.61011542616 -121.62499300933248 -999860.94494916627
 16543.560813892385 -238.82015242039955 -999863.11741184443
 16443.78757199652 -314.70650718306149 -999864.74225772219
 16359.043730257472 -352.44303008810863 -999866.11977411341
 16273.386915175919 -352.46698791771007 -999867.51754686562
 16170.422029794445 -312.6814971951847 -999869.20128667797
 16031.564451874896 -228.35932453679885 -999871.46013537364
 15834.10635526302 -91.746444459226637 -999874.62847024982
 15548.85084119398 108.67689119186835 -999879.10340543243
 15137.083392754805 389.28242436532702 -999885.35201069689
 14546.535566711069 772.66173423949328 -999893.89501929213
 13705.855655795067 1289.0719336543414 -999905.23941736226
 12516.941064576602 1977.5204910727389 -999919.70457586902
 10844.584991220545 2885.6673388704476 -999937.03196770209
 8503.9655005325021 4067.0427952111991 -999955.56987981615
 5251.4336188991865 5572.4724694149518 -999970.68456806464
 801.94747001983501 7428.7745378822656 -999972.08470492822
 -5038.4459430297657 9583.868619637673 -999941.38004423073
 -11824.025105405821 11714.700636846195 -999861.46951430035
 -17365.118589673599 12509.512882251502 -999770.95614136301
 -0 -0 0
 0 0 -0
 45862.510135611243 10374.910933643094 -998893.8839472289
 40317.390461820309 9047.0812560070826 -999145.96448521793
 34076.855295095913 7154.4336913758279 -999393.60714973207
 28976.962860656149 5394.4607528234264 -999565.52332328784
 25193.17359182037 3945.2600299952273 -999674.81659170962
 22485.821874858026 2802.2401316871519 -999743.2346682105
 20576.884926346924 1918.1197085989629 -999786.43350643222
 19239.621359035944 1241.04670884595 -999814.13111289206
 18306.48460742028 724.80148747830447 -999832.15955685405
 17657.944352548395 331.34791351629718 -999844.03144180577
 17209.688404956076 30.894977819216553 -999851.90186872403
 16902.281911005422 -198.98407505432078 -999857.1264293408
 16693.556850230681 -374.56232220563589 -999860.58271278744
 16553.158226253821 -507.19311323406231 -999862.85845003859
 16458.607685514518 -604.39092449511929 -999864.36527394305
 16392.413034000961 -670.68543743022292 -999865.41043080739
 16339.867376221804 -708.22312966871789 -999866.24463181372
 16287.298692891885 -717.13329895864842 -999867.09597882035
 16220.544611617839 -695.67314535155379 -999868.19629958086
 16123.465918233145 -640.16547052230612 -999869.80354191794
 15976.280302844869 -544.7153385527929 -999872.22271292482
 15753.501041196212 -400.69146030762153 -999875.82561601058
 15421.180733253588 -195.95776681587867 -999881.06732018164
 14933.070888942902 86.124045332398708 -999888.49177119485
 14225.113292149796 467.85931415044269 -999898.7084997599
 13207.52404521573 978.40548225848784 -999912.29816984804
 11753.705680505576 1654.7072032845051 -999929.55369208241
 9686.0528338640488 2541.606370225742 -999949.85905172187
 6762.4339683137259 3689.5552821684869 -999970.32789410499
 2680.6335530102606 5144.5065669049163 -999983.17398641119
 -2836.072099508453 6908.6531326845779 -999972.11321463296
 -9661.4023165730414 8795.8782152684471 -999914.64127279352
 -15969.993927763482 10093.545003676663 -999821.52389474295
 0 0 0
 -0 -0 0
 44164.927282726385 8500.7365449714252 -998988.08635353833
 38399.309438767603 6880.650377221551 -999238.78511845821
 32344.036792313611 5167.8431765592886 -999463.43438911252
 27563.650676876321 3731.3140465689457 -999613.08637734875
 24084.061388247388 2601.7778920344799 -999706.55131335789
 21629.023827203222 1732.4998953890017 -999764.56417118269
 19919.819191996514 1068.2173553104562 -999801.01005902153
 18737.303154448506 561.20692469509163 -999824.2838205552
 17922.531682056349 173.39830632137446 -999839.36349352309
 17363.85197407849 -124.61649670559818 -999849.22919175739
 16983.741463155224 -355.03935445917097 -999855.70282564766
 16728.418121437677 -534.23717526490896 -999859.92749874457
 16560.299474652413 -673.94358052614746 -999862.64170702966
 16452.668270535811 -782.27010356491576 -999864.33967827074
 16385.911530501606 -864.5255570830617 -999865.36818657536
 16344.81430169938 -923.83860493887448 -999865.98780420306
 16316.558503889217 -961.59843139342956 -999866.41370087338
 16289.147304131509 -977.72243135428675 -999866.84500434925
 16250.060220495681 -970.76932238033771 -999867.48779513419
 16184.936633673624 -937.89763709147951 -999868.57545088709
 16076.109282434192 -874.66935216341642 -999870.38843235234
 15900.74742823389 -774.68088016557533 -999873.27502076828
 15628.32702609308 -629.00979032272801 -999877.67238850228
 15217.000532293951 -425.45883264173125 -999884.12422619341
 14608.299552339298 -147.58855165084921 -999893.28220656049
 13719.406062198625 226.47687334076338 -999905.8588714872
 12432.223625475543 725.47635386657157 -999922.45374318212
 10579.090005226255 1386.6055063920728 -999943.07846988505
 7927.8687804575366 2256.7313050903344 -999966.02745314129
 4179.283981102988 3390.5589530819257 -999985.51874284225
 -975.77220227899693 4834.9717951861385 -999987.83538418554
 -7559.4445810259567 6561.3780191405058 -999949.90030306822
 -14034.129484079473 8206.6967054257711 -999867.83793599904
 -0 0 -0
 48972.586516857184 7749.0504202489001 -998770.06262073829
 43685.220416068652 6746.7140488508485 -999022.56399279716
 36917.519849161537 5044.4843960535136 -999305.58384578489
 30976.981684379331 3570.6901599813514 -999513.72015470965
 26470.54043821814 2431.497845302511 -999646.63672076492
 23241.556571273763 1569.9299663740846 -999728.64586748986
 20985.872539887332 919.80602842325857 -999779.34921191982
 19429.16968263052 427.32736564621081 -999811.14454519167
 18361.825132466416 51.762098561255279 -999831.40613729949
 17633.62091679882 -237.12653196740152 -999844.48750011635
 17139.964251021756 -461.61934206416157 -999852.99346106732
 16808.898244068143 -638.00212249733977 -999858.51693782781
 16591.01448877537 -778.01830292779982 -999862.0569487341
 16452.152738267592 -889.95133885508665 -999864.25811551593
 16368.271854388064 -979.44748093801206 -999865.55114131887
 16321.851212593185 -1050.135506491112 -999866.23824810283
 16299.344199693078 -1104.086019681173 -999866.54728154652
 16289.308681955103 -1142.1282036150219 -999866.66809421661
 16280.967411195685 -1164.046590132969 -999866.77867388492
 16262.978735627257 -1168.6628879992249 -999867.06603913056
 16222.253797748546 -1153.8121468306588 -999867.74485391367
 16142.620522291252 -1116.2043368697603 -999869.07637477794
 16003.12961457669 -1051.1650442769262 -999871.3891769225
 15775.696950937887 -952.23226703667444 -999875.10252002056
 15421.691650347922 -810.58522514455115 -999880.7500788453
 14886.897604003409 -614.25687905608413 -999888.99532308802
 14094.140012851278 -347.05985680899443 -999900.61244443408
 12932.801318761294 12.894054239057905 -999916.36774471961
 11244.943052930254 495.22880518777282 -999936.65099553508
 8809.8601795761497 1139.9540443172157 -999960.54265575565
 5336.068472268933 2000.1522461216944 -999983.76275030163
 492.36621690927984 3141.2509942361958 -999994.94504607376
 -5917.7065183405539 4618.1016657044329 -999971.82654641243
 -13329.50338442979 6310.8503133639715 -999891.24283986329
 -19370.081944370369 7182.1013559754192 -999786.58590000134
 48528.521808982252 5054.3731453677983 -998809.00871144643
 42588.998677153133 4330.6453476306315 -999083.29117373936
 35679.55154692191 3203.5234932811995 -999358.14753202384
 29934.195094687879 2174.7967685766753 -999549.50563893956
 25657.89981529651 1363.1518281845822 -999669.8524983942
 22622.212841184795 747.44412145364402 -999743.80558893853
 20515.376612383014 283.17404535049695 -999789.497411786
 19070.074947256508 -69.021875800967564 -999818.14720352378
 18085.378469699215 -339.21971613554541 -999836.38862345461
 17418.427541223726 -549.4403604211974 -999848.1367174125
 16970.314780262455 -715.57593522415789 -999855.73777787562
 16673.394383645766 -849.00053724764166 -999860.62884674827
 16481.528534972014 -957.75827516591073 -999863.71167086414
 16363.060702276496 -1047.4233542338695 -999865.56753834174
 16295.874490228241 -1121.7214244741328 -999866.58420793549
 16263.949827636625 -1182.984779810409 -999867.03340144933
 16254.926461712539 -1232.4766992045109 -999867.1203549552
 16258.342309111571 -1270.6165000859992 -999867.01707730582
 16264.275328099167 -1297.1148831765136 -999866.88656092202
 16262.207659438054 -1311.0343476324404 -999866.90203795675
 16239.922992719994 -1310.7721103775655 -999867.2645794868
 16182.275812105965 -1293.9682083439702 -999868.22111507086
 16069.604220180345 -1257.324832048625 -999870.08503828838
 15875.519913391208 -1196.3248110595184 -999873.26030573796
 15563.670689958715 -1104.817036714619 -999878.26835768868
 15082.953935898509 -974.42702766880188 -999885.7709721321
 14360.476369608994 -793.71822107796038 -999896.56801582419
 13291.517744871229 -547.01046327150357 -999911.51425293158
 11726.08142382601 -212.77412667305933 -999931.22450577223
 9453.3157380887569 238.25585479376875 -999955.28802827164
 6190.7251217331086 844.11362307427669 -999980.48100683361
 1602.5168649492944 1646.7651481231048 -999997.36004863761
 -4576.5356299087425 2661.6774825941734 -999985.98529909749
 -12088.811481475888 3758.1480950017722 -999919.86526914325
 -18803.414284906154 4424.7529445187502 -999813.40917823755
 48015.005132644859 2563.6781171032922 -998843.32446917007
 41801.889138598402 2184.6578963158777 -999123.53056782729
 34851.942498804645 1573.1408159629482 -999391.24837674724
 29228.891899536313 966.55131476086137 -999572.27735510992
 25102.541410905895 461.47579351546744 -999684.77504401654
 22196.115700093123 67.101223528064324 -999753.63362443133
 20189.473982791373 -235.48823488326946 -999796.14406417345
 18818.856924910033 -468.52862698860184 -999822.79985253653
 17889.077708148969 -650.53095968761454 -999839.76601664629
 17262.415071428866 -795.39373480144559 -999850.67703868088
 16843.989376961246 -913.14661823885024 -999857.71296976181
 16569.188845647226 -1010.8842724379922 -999862.21055402677
 16394.155827530398 -1093.5391825233326 -999865.00880206772
 16288.953836834287 -1164.4538469539298 -999866.64812370855
 16232.783509055431 -1225.7979297400566 -999867.48829981626
 16210.639983730684 -1278.8656688282931 -999867.78108603903
 16210.967598439791 -1324.2895693110395 -999867.71664388641
 16223.95722333814 -1362.1829690471152 -999867.45505070523
 16240.255394399748 -1392.2292289909865 -999867.14907656529
 16249.876107276923 -1413.7179287298461 -999866.96261458518
 16241.164639682334 -1425.5362649739295 -999867.08737586904
 16199.624294726083 -1426.1087374937792 -999867.76044963987
 16106.416051643184 -1413.2844673893624 -999869.28445121541
 15936.241637512681 -1384.1559218005796 -999872.05197207851
 15654.247383396203 -1334.7936301921218 -999876.57381540071
 15211.414656132121 -1259.8619189268022 -999883.50602062873
 14537.771790844821 -1152.076547214072 -999893.65730110859
 13532.639774614923 -1001.4640514386607 -999907.92812662723
 12051.36831863501 -794.47086224997145 -999927.06400901964
 9889.2725433689884 -513.30889348212634 -999950.96819921269
 6767.989164908884 -137.03999297568217 -999977.08750886109
 2343.6719694717422 351.01404061611282 -999997.19199147914
 -3698.1678273546017 938.27335067086585 -999992.72157243208
 -11238.745449830662 1525.6369430286361 -999935.6794477494
 -18224.875395143252 1883.2306324085096 -999832.13959104975
 47661.979455297609 652.72886303180712 -998863.30879627098
 41355.176101899153 483.74896684100571 -999144.39166544809
 34390.038032918397 211.16827532785234 -999408.46538942936
 28824.102582370477 -72.476620703628214 -999584.49660719559
 24775.409565732294 -319.72515401916314 -999692.99130116752
 21939.578914562826 -520.29579394326652 -999759.16308345902
 19988.828353094974 -679.81660403306489 -999799.97228968539
 18660.014524632494 -807.57980952573757 -999825.56062184763
 17760.788703637427 -911.99013227236628 -999841.8488234143
 17156.311173849812 -999.51917683963723 -999852.32006947964
 16754.05463395621 -1074.829431340798 -999859.0632659262
 16491.211897681016 -1141.1602389994468 -999863.35950641497
 16325.283083726601 -1200.68921895941 -999866.01276252791
 16227.362504572206 -1254.8174860984661 -999867.5402968243
 16177.434226407651 -1304.3778701563756 -999868.28593581379
 16161.10182804845 -1349.78876629363 -999868.48978152603
 16167.282387931793 -1391.1606113230434 -999868.33315809257
 16186.550456847217 -1428.3705321458474 -999867.9689548671
 16209.871462488305 -1461.1045775411335 -999867.54384797544
 16227.553765452807 -1488.8770923556565 -999867.21605610882
 16228.23725158896 -1511.0230078217535 -999867.17174091504
 16197.766667186108 -1526.6685815519036 -999867.64205970638
 16117.729941717993 -1534.6734417337523 -999868.9231889114
 15963.409410015123 -1533.5440785168396 -999871.40063238493
 15700.758966594394 -1521.3059470771777 -999875.57815764658
 15281.910144777916 -1495.3246242552475 -999882.10666387819
 14638.515253990212 -1452.0557332438625 -999891.79684869235
 13672.135063054744 -1386.7200816006341 -999905.57040664216
 12240.967714366372 -1292.9572634438921 -999924.24061572319
 10143.223494363934 -1162.7362339547483 -999947.88017255848
 7101.2320021458017 -987.41324214724011 -999974.29842928494
 2763.4618552782899 -762.1767305632477 -999995.89117416181
 -3212.4640564213214 -497.73661241931842 -999994.71615251573
 -10759.827639337915 -239.88318589523425 -999942.08260540222
 -17832.747304745444 -75.189979235488792 -999840.98109150922
 47514.730059517038 -943.72268569003188 -998870.09156089136
 41189.553529840792 -969.43145359183075 -999150.87993889558
 34224.468639165112 -992.93040996796447 -999413.67803105817
 28676.378423197195 -1014.2370456550955 -999588.2335460661