# OOMMF OVF 2.0
#
# Segment count: 1
#
# Begin: Segment
# Begin: Header
#
# Title: Oxs_TimeDriver::Magnetization
# Desc: Oxs vector field output
# Desc:  MIF source file: /mnt/gpfs/work/plgrid/groups/plggspinsym/MF/switching-obrazki/p-ap/Anisotropy.mif
# Desc:  Iteration: 20100, State id: 140850
# Desc:  Stage: 0, Stage iteration: 20100
# Desc:  Stage simulation time: 2.95937e-09 s
# Desc:  Total simulation time: 2.95937e-09 s
# meshunit: m
# meshtype: rectangular
# xbase: 1.0000000000000001e-09
# ybase: 1.0000000000000001e-09
# zbase: 3.4999999999999998e-10
# xnodes: 35
# ynodes: 35
# znodes: 5
# xstepsize: 2.0000000000000001e-09
# ystepsize: 2.0000000000000001e-09
# zstepsize: 6.9999999999999996e-10
# xmin: 0
# ymin: 0
# zmin: 0
# xmax: 7.0000000000000005e-08
# ymax: 7.0000000000000005e-08
# zmax: 3.4999999999999999e-09
# valuedim: 3
# valuelabels: Magnetization_x Magnetization_y Magnetization_z
# valueunits: A/m A/m A/m
#
# End: Header
#
# Begin: Data Text
 -0 0 -0
 0 0 -0
 -0 -0 0
 -0 0 0
 0 0 0
 -0 0 -0
 0 0 0
 0 -0 0
 -0 0 0
 0 0 0
 0 0 0
 -0 -0 0
 0 0 0
 21025.7016375643 34903.659987125975 -999169.48231526313
 18412.927239430752 34173.515405357342 -999246.28343332617
 15926.293362007667 33344.601914382263 -999317.01211523381
 13934.797326628724 32671.159949495501 -999369.00929087272
 12192.034300323796 32214.454792216242 -999406.61554847623
 10387.534265248549 32004.296387077273 -999433.75175378995
 8211.0615623944232 32074.25789671603 -999451.75994061539
 5441.5190310949929 32422.760864741093 -999459.4311169124
 2572.6520429378015 32852.934219630377 -999456.88560068817
 0 0 0
 -0 0 -0
 -0 0 -0
 -0 0 0
 0 -0 0
 -0 0 0
 -0 -0 0
 0 0 0
 0 -0 0
 0 -0 -0
 0 -0 0
 -0 -0 0
 0 0 -0
 -0 -0 -0
 -0 -0 -0
 -0 -0 -0
 -0 0 -0
 0 0 -0
 0 0 -0
 -0 -0 0
 0 0 0
 0 0 -0
 0 0 0
 26920.153254622728 33330.969265153588 -999081.75433074171
 24591.862694698688 31772.922715322158 -999192.53483566979
 22580.007564486885 29666.429704267455 -999304.78143907094
 20445.721079359977 28964.2642427807 -999371.32432665851
 17886.305701819852 27647.583973458874 -999457.69853894843
 15650.985579739772 26597.618555662939 -999523.69323470769
 13833.196461794099 25855.319802478913 -999569.98009822238
 12228.011736692022 25389.016197614474 -999602.85793183115
 10589.157461978446 25209.439319063069 -999626.10705876607
 8682.0843482271539 25378.024515944006 -999640.22392210597
 6365.1031116052127 25986.612265454765 -999642.02665021212
 3923.0372145151964 26970.011403412536 -999628.54514260101
 2321.3376835981931 27108.136947327926 -999629.81163158768
 230.00097762074898 28449.487286145744 -999595.20495683933
 -2471.8423637851033 29514.918383253505 -999561.28355802083
 -0 0 -0
 0 -0 0
 -0 0 -0
 0 -0 -0
 -0 0 0
 -0 0 0
 -0 0 -0
 -0 0 0
 -0 0 -0
 -0 0 0
 0 -0 -0
 -0 0 -0
 -0 0 0
 -0 0 0
 -0 -0 0
 0 0 -0
 0 -0 -0
 -0 -0 0
 32284.782319101367 31099.516861707114 -998994.75117819128
 29449.167812850897 29272.463539068256 -999137.5627977784
 26319.224967893668 27939.248273585672 -999263.07687365124
 23386.970758346146 25715.717634472749 -999395.69313925528
 21028.423682370045 23498.871030190447 -999502.68056556047
 18902.672245694612 21782.036228296751 -999584.02942410053
 16836.214751356089 20329.536071670362 -999651.56521457864
 15030.352320707423 19255.698499869155 -999701.60877353651
 13504.802153528844 18511.912910075313 -999737.43022815918
 12138.237610178227 18050.149233870645 -999763.39966031653
 10773.798834730342 17873.111907803133 -999782.21484951419
 9267.8903025762484 18034.139602990479 -999794.41687684937
 7546.9880311629113 18612.113837945974 -999798.29575276864
 5704.792543414329 19606.416619798292 -999791.50014858949
 3896.5619672615971 20753.743934407154 -999777.02459975553
 1608.0067927053619 22352.8036273984 -999748.85170434148
 -1371.3370810025078 24108.755064194986 -999708.40116699284
 -4403.8724918906564 24892.786347126173 -999680.42648385966
 -7583.0911075612394 26165.147512438976 -999628.87202446617
 -0 0 -0
 -0 -0 -0
 0 0 -0
 -0 0 0
 -0 0 -0
 0 0 -0
 0 -0 -0
 -0 -0 -0
 -0 -0 0
 0 0 0
 0 0 0
 0 0 -0
 -0 0 0
 0 0 0
 -0 -0 -0
 34794.300193729512 27475.854001977073 -999016.73365409183
 31415.432329737112 26303.408541112396 -999160.24806367012
 27615.616753991166 23776.556249614259 -999335.80596524489
 24299.140781467046 21380.275680843177 -999476.08053874574
 21531.18406745464 19115.87638019157 -999585.40974889707
 19300.799717410384 17141.086722263979 -999666.77561887994
 17416.001754895824 15537.152097103519 -999727.6027936734
 15751.27239135072 14253.599057951264 -999774.3407049157
 14310.663708071283 13282.363042751495 -999809.37369892432
 13069.944719690346 12583.108888837492 -999835.40741249803
 11954.060458100532 12125.078793564198 -999855.03094339324
 10868.138910661175 11910.304435700109 -999870.00565316866
 9723.8491315305473 11972.555183040005 -999881.04526511359
 8462.9145895373349 12358.146263682227 -999887.82135676383
 7066.5324829685869 13083.39575727237 -999889.43832512083
 5478.5555977969871 14114.728239209258 -999885.37336801516
 3452.9689513372527 15539.656295197923 -999873.29001611401
 809.83165001620466 17334.52486809843 -999849.41787265951
 -2446.1164851319536 19276.352789347129 -999811.20154621277
 -6345.0616001580229 21420.842367630135 -999750.41270586685
 -9696.9800295228615 22287.529238764972 -999704.57367101114
 -0 -0 -0
 0 -0 0
 -0 0 -0
 -0 -0 -0
 0 -0 -0
 0 -0 -0
 0 0 -0
 0 -0 -0
 -0 0 -0
 0 0 -0
 -0 0 0
 -0 0 0
 -0 0 -0
 36263.209496690135 25258.001769818307 -999023.02925588016
 33056.404249297528 23461.870540979187 -999178.06959962111
 28931.017431858261 20728.372938463199 -999366.46470935829
 25197.322641707888 18014.965756314428 -999520.16284839821
 22156.457509005661 15686.395428955953 -999631.44627862645
 19720.375698704025 13710.298051495425 -999711.52564609435
 17763.789430093035 12059.789703592993 -999769.47805851151
 16147.905334622517 10709.680748155268 -999812.25632194406
 14775.829790040038 9620.1817383829293 -999844.5513965342
 13603.791974061905 8763.2302989962009 -999869.06274704449
 12593.316274643386 8110.701780516124 -999887.80615718802
 11692.216233604951 7645.5650210950726 -999902.41394600843
 10839.565531461376 7370.4853421767411 -999914.08619186387
 9974.673369598615 7306.6042907526953 -999923.55679067213
 9042.5948066320234 7484.0768191210764 -999931.10766358732
 7987.2013820552274 7929.0273400857895 -999936.66556413623
 6718.118076116526 8666.6712244851915 -999939.87604225578
 5077.2479802981452 9758.7610197308095 -999939.49223755847
 2897.7080669673401 11255.954766616616 -999932.4511036987
 35.800165310120605 13182.736772460141 -999913.10330925067
 -3597.1908133003967 15579.649921903165 -999872.15919164557
 -7589.5312896614059 18017.003975293523 -999808.87502690114
 -10618.393221666884 19363.622201550497 -999756.12019163219
 0 -0 -0
 -0 0 -0
 0 0 0
 0 0 -0
 0 -0 0
 -0 0 0
 -0 0 0
 0 -0 0
 -0 -0 -0
 -0 -0 -0
 0 0 0
 37442.89875348362 23935.24438629338 -999012.07871031493
 34274.295362466277 21765.726278641669 -999175.42295483314
 30105.170621686088 18671.339166327234 -999372.3329148026
 26162.005897959381 15743.136968834095 -999533.74284502049
 22869.795944908576 13268.386450027145 -999650.40006716922
 20238.589602573215 11248.128600774577 -999731.90360910201
 18143.812630566685 9590.9670142238065 -999789.38552825153
 16457.381711924914 8222.1135726009325 -999830.76139694138
 15072.132459188684 7088.8454693688218 -999861.27992489235
 13912.742826332205 6150.8747007354013 -999884.29446984711
 12932.430257539143 5380.0617797430332 -999901.89877951506
 12094.419204885244 4756.5574122295011 -999915.54652664566
 11360.232375393447 4271.0073479087632 -999926.34909607761
 10687.361322771012 3926.8805109771338 -999935.17785774951
 10030.09047068853 3739.5324826085271 -999942.70494961925
 9338.6100644030448 3732.6024636378593 -999949.42774168029
 8552.4247137057664 3935.0620547182702 -999955.68467714707
 7586.5945657695429 4385.0406455176626 -999961.60676369583
 6321.5090143053276 5140.3241909944873 -999966.80724461749
 4614.8752205694509 6271.7612316683862 -999969.68350933085
 2315.0335564443922 7862.1603364468874 -999966.41296319372
 -703.3742852919338 9995.5525147890639 -999949.79583704052
 -4392.3109012916457 12609.477288972157 -999910.85036989441
 -8306.3460690286011 15288.682382763669 -999848.61894487834
 -11262.228038352712 16813.066112360906 -999795.2205464443
 0 -0 0
 0 0 0
 0 -0 -0
 0 -0 0
 0 -0 -0
 -0 -0 0
 0 -0 -0
 0 -0 0
 0 0 -0
 38856.87692055857 22901.522211306801 -998982.31385564874
 35518.236872479843 20635.626206513411 -999155.95668570953
 31214.36721834134 17376.269953308583 -999361.66052218969
 27129.702964782002 14269.640154094954 -999530.06787535665
 23661.365160684669 11663.598403090093 -999651.98957988597
 20850.805690376634 9559.7282873703207 -999736.89313595579
 18606.484132699137 7865.8289603870353 -999795.94292184699
 16806.579627414463 6480.7551314084812 -999837.75618554954
 15344.401080239793 5326.8653342482448 -999868.07822892279
 14138.429235342997 4350.4268762337888 -999890.58331637038
 13131.80140786134 3514.7579541400032 -999907.59686498437
 12286.216396208503 2795.920771821186 -999920.61270568043
 11572.053118325706 2179.7050268669946 -999930.66583269788
 10960.77224567853 1661.0892146336469 -999938.54923910147
 10421.130530133052 1244.3449222404922 -999944.92430542829
 9917.2376222114926 942.40674654385987 -999950.37890260783
 9406.1461942932401 775.77767189390397 -999955.46029949537
 8833.354909712165 772.41982685806988 -999960.68683156231
 8126.3262188459203 970.37936428145065 -999966.51003224833
 7189.5895938699405 1422.2588749579832 -999973.1431299363
 5905.8583676585185 2196.4347514535079 -999980.14805861202
 4140.6945462461499 3377.6635322332822 -999985.72291695117
 1758.6090989583654 5057.5783919722498 -999985.66399466235
 -1328.7216786407594 7284.3478601860888 -999972.58601171302
 -5073.9915878441898 9967.5281686692979 -999937.44953950658
 -9088.4547482030193 12646.38692961215 -999878.7270903989
 -12237.755065213427 14075.995257253204 -999826.0367226298
 0 -0 0
 0 -0 0
 0 0 -0
 0 0 -0
 0 0 -0
 0 -0 0
 -0 0 -0
 41087.327581071906 21630.393460300471 -998921.39710339473
 37265.240242772241 19577.896432297643 -999113.6110778068
 32590.340825247575 16393.184455442988 -999334.34504589322
 28235.265056251807 13260.981780535409 -999513.33966556902
 24557.014697005536 10587.136535347114 -999642.36883455119
 21566.450448091033 8417.4011728818605 -999731.98186942318
 19165.843536734072 6675.2331083065619 -999794.03464137332
 17235.475556101595 5261.0226247510836 -999837.6168275011
 15667.051241938643 4086.7703248504858 -999868.91231485654
 14375.773114143525 3086.3264288238897 -999891.90002547053
 13300.655571743844 2213.7368716935653 -999909.09183306491
 12400.228199793006 1438.4201168975178 -999922.07960828638
 11646.329467260222 741.29208447659175 -999931.90442948928
 11017.319679804061 112.22375442196446 -999939.30119427841
 10492.566263802948 -451.12188254604121 -999944.84975034848
 10048.790420042273 -943.80667555710158 -999949.06422279973
 9657.5630091235544 -1354.0252693938869 -999952.44791554718
 9282.9125860612785 -1663.3424354449614 -999955.52942411497
 8878.2987818953698 -1846.2068750196308 -999958.88282014604
 8382.9523052143086 -1868.2799916907613 -999963.11714008788
 7718.5848831217018 -1683.9904754196625 -999968.79332481208
 6787.5977361850728 -1234.739586846096 -999976.20168438216
 5472.7623566714219 -448.34461641906046 -999984.92381600034
 3640.8293616408378 755.96360191566725 -999993.08641639701
 1155.7307518666953 2447.9820664519002 -999996.33582840278
 -2090.6589227106297 4644.7631067839548 -999987.02757633349
 -6093.9801871272502 7212.0609122467258 -999955.42379791965
 -10506.916942001828 9644.600994460634 -999898.28801135125
 -14196.662894534307 10680.862045655189 -999842.17451986927
 0 0 0
 0 0 0
 -0 0 0
 0 -0 0
 -0 0 -0
 44596.853128223251 19368.99001933639 -998817.28204746754
 40059.93997263124 18130.192640100064 -999032.78090572264
 34658.688497230316 15371.046919064316 -999280.99462977063
 29760.830511590142 12413.867396404512 -999479.95921055123
 25706.656121278498 9786.7274749343196 -999621.62231335987
 22452.019791607127 7606.6107490649092 -999718.98365500162
 19854.945050684895 5836.6881822239857 -999785.83418054983
 17770.062156094449 4395.0121376952293 -999832.44034151942
 16075.148988171486 3198.2414739895958 -999865.67139615421
 14676.404245302541 2176.9605411117009 -999889.92594246625
 13506.695898744565 1279.1027901361203 -999907.96229550603
 12520.763523417323 468.13638132881454 -999921.5025836376
 11689.388642596941 -280.16994139183942 -999931.63751226827
 10993.484679327064 -980.5384903442116 -999939.08906436618
 10418.6592905332 -1640.0826801514493 -999944.37928686326
 9950.8142090949059 -2259.3799256892344 -999947.93689418014
 9572.9261979524617 -2833.0143466743293 -999950.16531511222
 9262.6784898409496 -3349.8505821154231 -999951.48946749966
 8990.4133966792033 -3793.0258196302993 -999952.39157776313
 8716.9627309274947 -4139.5037162519866 -999953.43845087639
 8391.1632372606327 -4359.0567920728154 -999955.29250232433
 7947.1512595067643 -4412.8859420937906 -999958.6837587445
 7301.5384261465015 -4252.4073975361644 -999964.30164678209
 6350.3568847555262 -3818.9323361013503 -999972.54398470779
 4966.2765604659535 -3046.1694805851507 -999983.0283302915
 2997.7982954911326 -1869.0270752813331 -999993.75995211676
 274.99452434969714 -243.78748491142534 -999999.9324728346
 -3360.9952996092634 1805.6398341203269 -999992.72166120564
 -7955.3811662549069 4082.2701261251277 -999960.02269146568
 -13139.47815672533 5987.3065302475807 -999895.74770287005
 -17486.067228526907 6202.2274284111818 -999827.87009955174
 0 0 0
 -0 -0 -0
 0 -0 -0
 0 0 -0
 42903.370947248586 16257.863667485717 -998946.9368441609
 37636.282163931362 14184.784852522936 -999190.82368863083
 32022.890258177125 11565.652308940356 -999420.21701893827
 27345.223605491312 9091.3242657393275 -999584.70705041348
 23650.873322643634 6967.1642528856728 -999696.00119903916
 20752.680487764268 5206.0028370222326 -999771.08569263667
 18454.949610553573 3753.5759997270075 -999822.64702400414
 16600.140794247942 2540.1014694412843 -999858.98166198237
 15072.134402438684 1500.855388775796 -999885.282518778
 13789.854054156183 583.11605452621552 -999904.74541369814
 12699.630565031159 -252.85021338544223 -999919.32447086996
 11767.997243551874 -1035.2677313548754 -999930.21879609174
 10975.244052689131 -1782.9637495244124 -999938.1806183079
 10309.792710097518 -2507.1910568735939 -999943.70949932956
 9763.4591531240349 -3212.9093432936293 -999947.17464419932
 9327.6882645387359 -3899.5417307673279 -999948.89259698172
 8990.7273423986717 -4561.3759376394582 -999949.17904432025
 8735.5127396125463 -5187.7221265193493 -999948.38784624974
 8537.938637221805 -5762.8708377033072 -999946.94505435391
 8365.1584397173738 -6265.7933829406038 -999945.3804871348
 8173.6246030044304 -6669.5750957693963 -999944.35276613815
 7906.6175094953705 -6940.6613215432317 -999944.65477844235
 7490.9785822805834 -7038.1757143122504 -999947.17326591536
 6832.6761379227664 -6913.7287413084641 -999952.75632986065
 5810.9939508454518 -6512.6143244137511 -999961.9083764964
 4271.7666808570066 -5777.9073320299913 -999974.18356489914
 2022.35020713986 -4660.0865478282931 -999987.09676325659
 -1160.5917777620425 -3138.2104487591505 -999994.40231528529
 -5471.6398512520245 -1265.2275803421051 -999984.23005390842
 -10823.017072352222 736.53087965668976 -999941.15818067756
 -15851.042467119089 2286.5326367828402 -999871.74988655734
 -0 0 -0
 -0 -0 -0
 0 0 -0
 46890.868600348549 14076.43206467026 -998800.83124826907
 41715.551807947653 13054.902355856848 -999044.23438696528
 35331.857248328866 10773.886682050817 -999317.5587515441
 29752.49446989522 8458.8686314342558 -999521.50382785383
 25365.834179548361 6416.6505764790245 -999657.64192135038
 21989.908705617057 4690.4350985436204 -999747.18991038192
 19368.942573242337 3245.895087583066 -999807.13551598275
 17289.535222033082 2026.6333057708816 -999848.47088408843
 15595.409036271059 975.46617580316888 -999877.90838818485
 14178.939305414562 42.643593679967459 -999899.47287799779
 12969.612933067978 -811.76247463444759 -999915.56152609759
 11923.949199692335 -1618.0446329445035 -999927.59806250432
 11017.335218742559 -2398.0520202702205 -999936.43181513599
 10237.423787302101 -3166.5354571534936 -999942.58245531179
 9578.7666920904994 -3932.2571557141964 -999946.39085418964
 9038.488704366624 -4698.7352249351879 -999948.11245845479
 8612.9058095229084 -5464.6779655547471 -999947.97622088774
 8294.9714535514449 -6224.1886833990684 -999946.22501603467
 8072.3685263245306 -6966.8367760922029 -999943.1484098034
 7925.9841840518175 -7677.6123423616245 -999939.1146682055
 7828.4598790157897 -8336.7712197599794 -999934.60459249618
 7742.4744629022243 -8919.549723970782 -999930.2454281064
 7618.3879731501202 -9395.7953830355982 -999926.83692048735
 7390.8095858901961 -9729.6033043745065 -999925.35259048431
 6973.5881932131133 -9879.1643057510009 -999926.88291711174
 6252.7741071397695 -9797.1790840742706 -999932.45676793577
 5077.5410164217928 -9432.4638595930119 -999942.6219552618
 3250.8320993038442 -8733.8789628830364 -999956.57478158711
 527.70346772577761 -7659.294183988608 -999970.52793652553
 -3350.4836072209728 -6197.1354040641163 -999975.18457828811
 -8493.320390744324 -4429.22832469075 -999954.12167018349
 -14312.765975003795 -2774.2188239575257 -999893.71857216
 -18676.810647056336 -2844.8170553528585 -999821.52595349518
 -0 -0 0
 0 0 -0
 45377.329126991986 11470.926662982509 -998904.0573762795
 39553.206671274558 9976.4932104875807 -999167.66031794727
 33124.705857145527 7903.0540028797723 -999419.97958781326
 27818.169829841929 5939.8629138775786 -999595.35185788176
 23738.747957631134 4248.3849317584818 -999709.16924417368
 20629.138478227393 2818.6803079383517 -999783.22334742523
 18217.613067964026 1601.9835216739211 -999832.76212719781
 16292.567835588325 545.86018011635429 -999867.11830622086
 14705.141530816405 -396.41099373791894 -999891.79498127813
 13356.580498509824 -1263.5652966591858 -999909.99852993176
 12185.03910688358 -2086.3670269099284 -999923.58302751963
 11154.827037032301 -2888.4068112194082 -999933.61126620148
 10248.071876450873 -3687.0525099802817 -999940.68957443885
 9458.228902361654 -4494.2762206652333 -999945.17019048729
 8784.9552526269381 -5317.2244008907428 -999947.27445294836
 8230.0579738991255 -6158.5448688518827 -999947.16783980373
 7794.3396738919728 -7016.5191646210615 -999945.006851807
 7475.2082693263455 -7885.0957527090477 -999940.97152096953
 7264.8818778476852 -8753.8722550034399 -999935.29351245728
 7148.9675802219535 -9608.0670655579197 -999928.28608345764
 7105.1239578159675 -10428.462737678759 -999920.3790194859
 7101.4592289476859 -11191.316398718827 -999912.15799893311
 7094.2513769236948 -11868.217998165321 -999904.40393017035
 7024.5119500834871 -12425.924830291729 -999898.12112233462
 6812.8614788913292 -12826.215467788292 -999894.53099576617
 6352.2276937959341 -13025.876266321902 -999894.98236105801
 5498.2508480955967 -12977.002971638658 -999900.67838335107
 4058.7116342096069 -12628.104614505542 -999912.02504706162
 1787.9348513265431 -11927.671214868988 -999927.26432893984
 -1593.8393738801719 -10836.522099404076 -999940.01293319569
 -6294.5962482684563 -9372.0190794013142 -999936.26962744293
 -12076.933038082576 -7749.4664801068093 -999897.04142859997
 -17130.967607354334 -6632.7132132404504 -999831.25429457694
 0 0 0
 -0 -0 0
 43373.126790172937 9207.516383199385 -999016.51313404064
 37404.743889329715 7447.5725426968338 -999272.44473056227
 31196.301043972453 5544.2869866770779 -999497.89978918096
 26198.746613170028 3867.2438213244568 -999649.27354603994
 22391.520775714642 2445.0812666872748 -999746.2885027132
 19492.541137889293 1232.6384082444031 -999809.24252706417
 17233.730344582902 176.8234974235782 -999851.47260573704
 15412.695528754548 -768.90671565843763 -999880.92170968058
 13889.805076479886 -1642.7326292684604 -999902.1825881002
 12574.446936648646 -2475.3331033029335 -999917.87463284458
 11411.763519365328 -3291.0784561050978 -999929.46774058708
 10372.062156792856 -4109.0266938229333 -999937.76617659826
 9442.7088243278104 -4943.6337688970361 -999943.1962542762
 8621.8809716029373 -5805.1611487379996 -999945.98017720366
 7913.6736739423741 -6699.8364002743301 -999946.24153560959
 7324.2318116690603 -7629.8268209415182 -999944.06912139407
 6858.7221050188482 -8593.1293339937492 -999939.55620294134
 6519.0065225599628 -9583.4450674697837 -999932.82781124744
 6301.8748847420675 -10590.106503604695 -999924.06512553734
 6197.6385637754493 -11598.062761909327 -999913.53336996271
 6188.821210315331 -12587.919460866002 -999901.616548185
 6248.6033871559448 -13535.986486339381 -999888.85983670782
 6338.6069332396874 -14414.305036142328 -999876.01725037431
 6405.539121919368 -15190.61428136332 -999864.09791846853
 6376.1831721394346 -15828.250231080643 -999854.39479095035
 6150.2840757673666 -16285.963019012917 -999848.45922486205
 5591.2351493307915 -16517.670965760746 -999847.94075667905
 4515.6820033500235 -16472.261530816984 -999854.12596843578
 2686.7770562447135 -16094.087111097533 -999866.8719330139
 -173.69265907386603 -15326.767983582753 -999882.52310660854
 -4307.0859830306335 -14129.438204458735 -999890.89804156206
 -9615.6757178796706 -12537.224216695715 -999875.17060352548
 -14589.67157091131 -10910.281625844676 -999834.03984776279
 -0 0 -0
 48590.073767638292 8086.0944498680474 -998786.07309463585
 42798.701154472685 7029.3432917707605 -999058.98700345866
 35757.768942160001 5198.479742603522 -999346.96565739601
 29627.88674736676 3517.7353296255915 -999554.80783448578
 24867.214333037587 2097.206134138672 -999688.5631924303
 21269.213943191553 891.30378840683704 -999773.38738125807
 18524.557133564595 -157.88693753027439 -999828.39320291358
 16369.867989914668 -1099.4113701635461 -999865.40029977646
 14612.044759632357 -1972.1255632896609 -999891.29352580372
 13119.754936081727 -2806.7152501330033 -999909.99313934357
 11809.063646291794 -3627.7507808142536 -999923.68980841246
 10630.525037595862 -4455.1430197593772 -999933.56961255101
 9559.0480394405004 -5305.0119145465806 -999940.23893889098
 8586.1667255838747 -6190.0710365505256 -999943.97881157463
 7714.0840132671055 -7119.6639425470021 -999944.90012859274
 6950.9771360255781 -8099.5594149189474 -999943.03890478611
 6307.248202335335 -9131.6378023441048 -999938.41400916327
 5792.5333110796337 -10213.566747691662 -999931.06242987071
 5413.3554867648081 -11338.566433607579 -999921.06313128793
 5171.3012879508742 -12495.302926757873 -999908.5583430907
 5061.5585812537711 -13667.926747660262 -999893.77856007766
 5071.5743499846458 -14836.212128670946 -999877.07541641616
 5179.5085451427813 -15975.746862322494 -999858.96415615641
 5352.0765042026287 -17058.096631837641 -999840.17553626653
 5541.3100265053008 -18050.894781994957 -999821.71364736801
 5679.7453580402216 -18917.810527542006 -999804.90943859238
 5673.6267371587091 -19618.383190776436 -999791.44275225094
 5394.0644115401028 -20107.724097094255 -999783.268264057
 4667.1576325297019 -20336.195844853562 -999782.30469347304
 3267.0997674282867 -20249.55300293614 -999789.61870099988
 924.48471093294654 -19791.50298497748 -999803.701602277
 -2615.5047229397187 -18916.531797089439 -999817.64535329829
 -7390.1977874088452 -17648.112823931282 -999816.94779115298
 -12661.981013202258 -16347.058309556836 -999786.20110573911
 -16232.459398855553 -16661.735905907633 -999729.41029984003
 47798.182454551097 5225.7431815924811 -998843.34375428536
 41455.835242605121 4333.5860384667203 -999130.93924489454
 34300.494600753773 2985.6355192064348 -999407.10526326054
 28340.825775482848 1678.4059413603215 -999596.90903276601
 23772.254926565176 523.82358348746197 -999717.26278211281
 20325.387873687461 -494.35366712195184 -999793.29574779421
 17684.319680054756 -1414.5958089716412 -999842.61949376366
 15592.109514103506 -2272.5666726478976 -999875.85307457962
 13863.400276245035 -3097.4515937131619 -999899.10087288567
 12373.247438308086 -3912.9630392625709 -999915.7921885642
 11042.642469058159 -4738.8315082984955 -999927.79915513727
 9826.0939327821216 -5591.8385773797872 -999936.08756727504
 8702.0010590382954 -6486.2714256801019 -999941.09999567515
 7665.3264887288306 -7433.9084273713834 -999942.98826248827
 6721.9115918121888 -8443.6652074597114 -999941.75851517275
 5883.9375329790373 -9521.0612498989049 -999937.36237415567
 5166.218964392554 -10667.640128068602 -999929.75335055904
 4583.168432232007 -11880.482969017088 -999918.92105887493
 4146.3390710230406 -13151.898784530926 -999904.91319458443
 3862.4671755109689 -14469.34697275478 -999887.85338431841
 3731.8874867711656 -15815.570989206059 -999867.9616479727
 3747.1158670045061 -17168.890803053095 -999845.58223321277
 3891.2939611381789 -18503.552694381684 -999821.2222037469
 4136.0971353100704 -19790.044976799396 -999795.60252098704
 4438.6359441579507 -20995.291886909865 -999769.72160069877
 4736.8605489685078 -22082.68828352373 -999744.92598377925
 4943.0587645077485 -23011.975569378646 -999722.9692021911
 4935.3516920632464 -23739.050743248761 -999706.00667070376
 4547.9940599571009 -24215.978745675257 -999696.4049767406
 3563.6891146555013 -24392.038640823914 -999696.11811331892
 1717.3392589111927 -24218.292695007669 -999705.21907450736
 -1263.6839203919667 -23663.115546195142 -999719.19060584065
 -5519.4298641699643 -22759.052456635785 -999725.74310420279
 -10666.036495299713 -21717.377941474275 -999707.25272993196
 -14853.894161735261 -21033.089867220006 -999668.43051027146
 46865.481266764364 2481.2602897769152 -998898.12794549228
 40311.519437216368 1886.7357306041952 -999185.3790107948
 33160.612929555908 973.01055134707974 -999449.5620093107
 27323.177897441641 9.7764864988140623 -999626.65223272506
 22880.103037099805 -905.00123007650939 -999737.80655619176
 19526.698898127299 -1761.2739662683814 -999807.78449867934
 16943.206970337509 -2575.8359558028137 -999853.13561877131
 14876.996439764742 -3369.7845257329636 -999883.6529962779
 13147.779745007136 -4162.7099474618008 -999904.89934476768
 11634.699274313376 -4972.0944648715767 -999919.9528209389
 10261.881498364986 -5813.79891504855 -999930.44434615015
 8986.4779132951953 -6702.390210398944 -999937.15861557098
 7789.5113432323633 -7651.0500714846848 -999940.39069628424
 6668.9069546085548 -8671.0857908812031 -999940.16718563589
 5634.0335897674504 -9771.1787147939867 -999936.38884282683
 4701.2500977231157 -10956.517120962515 -999928.92396414676
 3890.1610906584588 -12227.986618554005 -999917.66810570215
 3220.4378037807119 -13581.552991469616 -999902.58035405225
 2709.1551866732643 -15007.948061272913 -999883.70422422851
 2368.6122910439435 -16492.686275066186 -999861.18085224554
 2204.5635294583217 -18016.383460295088 -999835.2613439156
 2214.6952679878805 -19555.269031705535 -999806.32453389047
 2387.0670726392254 -21081.758787243438 -999774.90534481185
 2698.1205727097999 -22564.938598587738 -999741.73849620624
 3109.7718014401048 -23970.852655239953 -999707.82108690334
 3565.0733228639228 -25262.535664008923 -999674.49429503165
 3981.9988393237481 -26399.814088155716 -999643.53321639332
 4245.1657403007648 -27338.999286181126 -999617.20557714882
 4196.0273733654676 -28032.809140843226 -999598.19676005573
 3623.9473981660221 -28431.329659903615 -999589.17886250908
 2265.4702682911366 -28485.96520794179 -999591.62533038249
 -167.83299489994707 -28160.582863322114 -999603.39805589069
 -3875.7140174192214 -27456.958718730115 -999615.47319895634
 -8601.3930538114637 -26461.091604422134 -999612.83838726091
 -12592.279895401312 -25430.536904675773 -999597.28004820831
 46073.697589782081 210.32067789850291 -998938.02117830014
 39450.567205523119 -196.57464341768974 -999221.50402479433
 32317.000262801135 -817.71183908346552 -999477.33483124175
 26543.98554741418 -1513.7497218262001 -999646.50021547033
 22163.006458455919 -2226.1571535213084 -999751.89190571196
 18850.111419423065 -2941.7594178483159 -999817.9931122479
 16282.514650479116 -3664.9257371863291 -999860.71431774809
 14209.388139076415 -4405.437311988665 -999889.33658220561
 12452.731628378979 -5174.6973776317809 -999909.07185705728
 10893.474212610499 -5984.8883300749339 -999922.75368213095
 9457.1768833591796 -6848.7558069124043 -999931.82585078978
 8102.4980950817617 -7779.2518375857453 -999936.91439283651
 6812.4424846836791 -8788.8402469774719 -999938.17154587421
 5587.6882865609296 -9888.5023728403849 -999935.49554980535
 4441.2795692513964 -11086.555409948644 -999928.67911913095
 3394.1747286646023 -12387.461052568553 -999917.51179113879
 2471.3566606070099 -13790.799722235623 -999901.84830276063
 1698.3944936508633 -15290.583520728303 -999881.64975247928
 1098.4551375335668 -16875.008419703623 -999857.00351957593
 689.80258080535145 -18526.675651098034 -999828.12846094626
 483.77949632364357 -20223.201034986003 -999795.37311256723
 483.16182181930833 -21938.060259728649 -999759.21504465002
 680.63157268698069 -23641.459002162461 -999720.2699540063
 1056.9659243444346 -25301.028774112405 -999679.31896483991
 1578.4294880936013 -26882.186285186042 -999637.36255748256
 2192.8133015455737 -28348.078557431229 -999595.7072796612
 2823.6260872769089 -29659.114270688198 -999556.08350727253
 3362.174144585646 -30772.182069388404 -999520.76946690294
 3657.879898275859 -31639.783152990061 -999492.64331293688
 3508.7955490792101 -32209.583177494998 -999474.97772847058
 2658.6780302044044 -32425.492184191684 -999470.61932192103
 819.61141787735573 -32232.697657892702 -999480.05554829317
 -2223.2215000146257 -31592.214032371288 -999498.36883243313
 -6257.4047791500852 -30523.098632962101 -999514.47480027657
 -9671.0868696150228 -29266.783739499071 -999524.84984031564
 45490.703386992995 -1828.2557666105781 -998963.08910099801
 38852.949886289287 -2096.4831138842073 -999242.73980033817