# OOMMF OVF 2.0
#
# Segment count: 1
#
# Begin: Segment
# Begin: Header
#
# Title: Oxs_TimeDriver::Magnetization
# Desc: Oxs vector field output
# Desc:  MIF source file: /mnt/gpfs/work/plgrid/groups/plggspinsym/MF/switching-obrazki/p-ap/Anisotropy.mif
# Desc:  Iteration: 45700, State id: 320050
# Desc:  Stage: 0, Stage iteration: 45700
# Desc:  Stage simulation time: 6.7277e-09 s
# Desc:  Total simulation time: 6.7277e-09 s
# meshunit: m
# meshtype: rectangular
# xbase: 1.0000000000000001e-09
# ybase: 1.0000000000000001e-09
# zbase: 3.4999999999999998e-10
# xnodes: 35
# ynodes: 35
# znodes: 5
# xstepsize: 2.0000000000000001e-09
# ystepsize: 2.0000000000000001e-09
# zstepsize: 6.9999999999999996e-10
# xmin: 0
# ymin: 0
# zmin: 0
# xmax: 7.0000000000000005e-08
# ymax: 7.0000000000000005e-08
# zmax: 3.4999999999999999e-09
# valuedim: 3
# valuelabels: Magnetization_x Magnetization_y Magnetization_z
# valueunits: A/m A/m A/m
#
# End: Header
#
# Begin: Data Text
 -0 0 -0
 0 0 -0
 -0 -0 0
 -0 0 0
 0 0 0
 -0 0 -0
 0 0 0
 0 -0 0
 -0 0 0
 0 0 0
 0 0 0
 -0 -0 0
 0 0 0
 21123.606505771393 32513.156867164507 -999248.06123340584
 18594.624645763557 31820.875353297888 -999320.60512431804
 16198.562394185528 31098.180450914628 -999385.06580246845
 14288.183006154024 30585.34389849209 -999430.02984951052
 12611.596467941783 30325.768948477908 -999460.50215714541
 10857.781056483924 30331.804316225142 -999480.91039171512
 8717.963753848755 30619.689318931116 -999493.08738680067
 5969.0348306286833 31168.667121496001 -999496.3155575213
 3090.893988141283 31750.54925607406 -999491.04498053994
 0 0 0
 -0 0 -0
 -0 0 -0
 -0 0 0
 0 -0 0
 -0 0 0
 -0 -0 0
 0 0 0
 0 -0 0
 0 -0 -0
 0 -0 0
 -0 -0 0
 0 0 -0
 -0 -0 -0
 -0 -0 -0
 -0 -0 -0
 -0 0 -0
 0 0 -0
 0 0 -0
 -0 -0 0
 0 0 0
 0 0 -0
 0 0 0
 26625.417754751594 30493.672401997384 -999180.27556233539
 24368.167515034347 28917.18017563592 -999284.73875199782
 22470.480331166655 26875.140154579232 -999386.21381093643
 20505.842590796219 26335.15446418709 -999442.82981018431
 18099.70863995696 25141.338200334252 -999520.04165031377
 15994.388586446712 24242.51568580063 -999578.15100519778
 14280.716428097852 23689.143265700633 -999617.36961181182
 12754.24879982225 23441.508320723406 -999643.84899083013
 11170.584882562707 23497.449830404035 -999661.48664677946
 9297.7756263126394 23904.801101992416 -999671.00180643273
 6994.2908651188945 24745.005345847185 -999669.32763075607
 4539.2301525247776 25958.975489170243 -999652.70318304782
 2923.8018107788798 26391.054786626268 -999647.41964865837
 821.30116867466336 27980.661431880832 -999608.12724298378
 -1894.6932918890086 29202.634483836235 -999571.71642485633
 -0 0 -0
 0 -0 0
 -0 0 -0
 0 -0 -0
 -0 0 0
 -0 0 0
 -0 0 -0
 -0 0 0
 -0 0 -0
 -0 0 0
 0 -0 -0
 -0 0 -0
 -0 0 0
 -0 0 0
 -0 -0 0
 0 0 -0
 0 -0 -0
 -0 -0 0
 31741.384666433503 28067.57417908364 -999101.94463786285
 28948.414812691142 26181.724021856779 -999237.96295330767
 25950.23828590125 24886.357286063365 -999353.41814291861
 23167.798756090331 22709.205369778545 -999473.6340155605
 20977.533636780885 20598.977232975001 -999567.71917638124
 19041.192733190168 19047.154331386027 -999637.25365313073
 17159.136934528466 17773.084978783649 -999694.79415969714
 15512.604739089737 16897.564090180924 -999736.88109523442
 14113.375041978859 16377.24453374903 -999766.27193879976
 12838.911219362801 16160.781338704019 -999786.97306237381
 11534.022933895187 16242.516815374232 -999801.55379078235
 10058.138954860229 16666.081901248956 -999810.51982604444
 8340.308648213364 17503.395470928564 -999812.01753061614
 6476.0677325223069 18756.425315416855 -999803.1091450511
 4632.4417134309388 20175.453106626945 -999785.72283050418
 2308.3663438837166 22030.514235827784 -999754.63384138793
 -705.24111366797899 24021.618602130897 -999711.19053189841
 -3745.3922651901107 25099.916583746195 -999677.93124799407
 -6926.6626197695323 26537.181138400345 -999623.82892875245
 -0 0 -0
 -0 -0 -0
 0 0 -0
 -0 0 0
 -0 0 -0
 0 0 -0
 0 -0 -0
 -0 -0 -0
 -0 -0 0
 0 0 0
 0 0 0
 0 0 -0
 -0 0 0
 0 0 0
 -0 -0 -0
 34068.527145357511 24292.864591723224 -999124.21259224531
 30769.546757812481 23090.811677907484 -999259.75071968872
 27090.831929176944 20556.339302184228 -999421.59459353203
 23948.112510823768 18220.580307675376 -999547.14664212824
 21384.015922348273 16059.221841464976 -999642.34867120313
 19371.009033737526 14232.770987956734 -999711.05437472241
 17707.168686390556 12819.067403130224 -999761.03529194719
 16251.26167208189 11751.845781205075 -999798.87508178351
 14991.848244391753 11019.043709800606 -999826.89759874879
 13895.233909089246 10579.469126519476 -999847.48702370247
 12882.746113116844 10398.903993095169 -999862.93943136395
 11859.885508292373 10473.00313006641 -999874.82182579627
 10741.300134665025 10827.990148110355 -999883.68278553768
 9473.145065058794 11503.947804732343 -999888.95318804379
 8042.3716003713125 12514.856678571883 -999889.34318821295
 6402.2292678131616 13827.245328564506 -999883.90263421368
 4317.6737323305642 15520.309789530371 -999870.23041871714
 1616.6619806560304 17569.782957904677 -999844.33244923304
 -1686.9105149876518 19765.379785803227 -999803.22268676339
 -5633.4438390630985 22128.665011639354 -999739.25925478933
 -9036.72062296902 23241.172227854724 -999689.04445025173
 -0 -0 -0
 0 -0 0
 -0 0 -0
 -0 -0 -0
 0 -0 -0
 0 -0 -0
 0 0 -0
 0 -0 -0
 -0 0 -0
 0 0 -0
 -0 0 0
 -0 0 0
 -0 0 -0
 35398.20931633671 21946.47705070661 -999132.28299472912
 32248.899041367684 20128.276214279558 -999277.16926149232
 28252.591290217912 17405.78388774785 -999449.26323082589
 24705.312120472128 14748.091856204224 -999585.98496559123
 21890.66305005828 12524.114938690976 -999681.92212134704
 19704.367937617968 10694.606083131859 -999748.65005405527
 18006.11884727902 9230.1969743214067 -999795.27061687631
 16643.636697428912 8102.3333322095568 -999828.65609666239
 15505.898982394145 7264.5035789327585 -999853.38629446039
 14535.992007423181 6684.1083593430776 -999872.00562462013
 13685.954626040113 6329.6067644770765 -999886.30889925733
 12898.698062645377 6179.5768780419203 -999897.71297763125
 12112.594718057637 6230.7390217037246 -999907.22716682043
 11269.682288079042 6497.4015662544471 -999915.38543719403
 10320.347339008806 7003.2323034949286 -999922.21955915436
 9215.876473879418 7769.3212480536768 -999927.34999506956
 7875.3818334209946 8816.9733703705824 -999930.11722898111
 6151.3055764218561 10203.345737965305 -999929.02406893705
 3885.8821088733671 11977.5423785684 -999920.71605643083
 940.31310126378435 14166.804012311548 -999899.20365772292
 -2779.0970253871474 16814.005312808229 -999854.77237700101
 -6865.4702402550229 19524.404952116325 -999785.80852582911
 -9969.2883240575593 21218.225044353207 -999725.16234026977
 0 -0 -0
 -0 0 -0
 0 0 0
 0 0 -0
 0 -0 0
 -0 0 0
 -0 0 0
 0 -0 0
 -0 -0 -0
 -0 -0 -0
 0 0 0
 36498.266971507452 20518.35637288474 -999123.05226124777
 33353.553322999986 18327.239029206728 -999275.56399138283
 29288.306808030862 15255.561959258142 -999454.58271680668
 25526.633973000102 12398.413451508794 -999597.25404879614
 22470.362606874456 10034.909284338817 -999697.14583966415
 20110.619862296528 8164.9231472885713 -999764.42075058527
 18307.086548046231 6695.7296234473642 -999809.99084172584
 16916.697880428725 5551.405110391529 -999841.4910545185
 15817.565184197951 4677.148073799146 -999863.9552046766
 14920.002247999415 4029.1169378192972 -999880.57274337567
 14164.410866358146 3575.4143633822582 -999893.28724466357
 13504.279566362989 3292.1894688404982 -999903.39329451974
 12895.42127739721 3165.230712552242 -999911.8408262874
 12293.823168906747 3192.0474097350339 -999919.33311903989
 11656.132098649827 3381.2298121293447 -999926.34822243603
 10938.138562556254 3749.491528866 -999933.14698436763
 10087.496191803173 4319.3769532715842 -999939.79088908969
 9029.2948255172541 5123.3823352014424 -999946.10994213156
 7654.7806792555457 6214.5656322459226 -999951.39057193953
 5831.3465202928537 7661.3932821807721 -999953.64815112134
 3413.0657812898362 9548.4590803095634 -999948.58763396658
 274.11426617266653 11968.53023213589 -999928.33700493339
 -3540.8579731835976 14884.078236886844 -999882.95642032626
 -7579.8941937731834 17916.232053975393 -999810.75901042356
 -10621.475521789131 19890.601359774722 -999745.74179402564
 0 -0 0
 0 0 0
 0 -0 -0
 0 -0 0
 0 -0 -0
 -0 -0 0
 0 -0 -0
 0 -0 0
 0 0 -0
 37885.303428764339 19416.670173507933 -999093.43742388953
 34538.691757679349 17123.611692396298 -999256.65406554891
 30302.837444887704 13890.433950490558 -999444.24251053436
 26372.406063939197 10865.384573566411 -999593.13703949924
 23129.001485936729 8383.4147021562803 -999697.33802196092
 20595.259752264483 6439.6238786670074 -999767.15615189029
 18662.503105093478 4940.8429761504522 -999813.63215778267
 17192.888636567932 3786.2400499157457 -999845.0224742908
 16063.82910502879 2898.2265058009161 -999866.7679634149
 15177.935877917738 2222.1615539259087 -999882.33920822584
 14463.138991788897 1719.2949435421226 -999893.9251917681
 13867.722840897468 1362.7310070741614 -999902.90990046167
 13351.655758237546 1134.4231128277306 -999910.21915605734
 12879.868511209013 1024.4712198034877 -999916.52623899258
 12418.8385049975 1031.1729338502848 -999922.35155164276
 11934.524021773492 1160.5894952069254 -999928.10749993287
 11389.467149184558 1425.8585171799739 -999934.12131277251
 10737.583690386435 1847.59225469337 -999940.64358808438
 9916.8337253967384 2456.9959280787975 -999947.80842795596
 8843.2042387233741 3300.9235271437715 -999955.44982897106
 7410.1729308955846 4444.2328724983299 -999962.66836882918
 5491.3007533561058 5972.2449862489229 -999967.0884113441
 2954.6724230583327 7984.0898282277467 -999963.76145362738
 -288.69705633106094 10546.348977700171 -999944.34403983213
 -4191.884972955967 13597.786571648414 -999898.75902549503
 -8353.0183868384283 16712.085330610076 -999825.45141026063
 -11589.928213340876 18688.100976575908 -999758.18498569878
 0 -0 0
 0 -0 0
 0 0 -0
 0 0 -0
 0 0 -0
 0 -0 0
 -0 0 -0
 40130.782565591588 18124.682745154209 -999030.03766956925
 36275.422928996246 16037.082917498581 -999213.14325964521
 31631.483622998807 12876.344762579032 -999416.65434860706
 27393.140954383147 9829.3745336896318 -999576.4098981776
 23911.572320396735 7288.358388359904 -999687.50944541127
 21184.380487012902 5289.7984688639071 -999761.5916084894
 19098.511829456875 3753.3820001677277 -999810.56154126546
 17518.338824529681 2579.1753767348032 -999843.21553891886
 16319.166702897459 1679.994186691609 -999865.42215322936
 15399.269449704614 990.35671752624262 -999880.933758609
 14680.605139747426 464.20113794494034 -999892.12635665573
 14105.386727412582 69.807203797435278 -999900.51164714585
 13631.023179918726 -214.13894716280785 -999907.07035783061
 13224.459518679387 -401.15862831297778 -999912.47254056879
 12857.526825881108 -498.23249098830377 -999917.21445743029
 12503.73204729498 -506.32166612221403 -999921.69709595758
 12135.755465455301 -420.63332926989011 -999926.27053542552
 11722.668774831527 -230.55538560053245 -999931.26057795086
 11226.243587019309 81.256441451136098 -999936.98044042557
 10596.426163883361 541.07833271510606 -999943.70990910847
 9766.9767297780436 1187.2524117819828 -999951.59712721629
 8652.3129683097304 2073.0359799974208 -999960.41921774263
 7145.6094120842045 3268.7649206346964 -999969.12724444817
 5120.9057033712652 4859.111534149989 -999975.08236949379
 2445.3501356631164 6926.1806637368154 -999973.02377820527
 -989.3327251744596 9509.1981509117359 -999954.29714126722
 -5177.0632811779524 12504.28096304129 -999908.4162929022
 -9752.6709687972361 15437.088727911809 -999833.27695200313
 -13531.610735253849 17084.853621181777 -999762.47343439143
 0 0 0
 0 0 0
 -0 0 0
 0 -0 0
 -0 0 -0
 43666.614168072258 15907.683175386606 -998919.50247409218
 39094.114627067305 14618.089206567438 -999128.60116677429
 33694.43592816915 11874.678247803336 -999361.63474689855
 28873.670728189594 8999.77642618151 -999542.55295257899
 24978.558000640081 6508.2224821669506 -999666.80182965542
 21959.303061158796 4506.7262475073421 -999748.70763987408
 19663.201736185969 2952.6875797473263 -999802.30052422767
 17931.444006190817 1762.0080293361716 -999837.66614563868
 16626.523766296283 851.43319890046848 -999861.40728050726
 15637.879717751115 152.56936562278389 -999877.70924274647
 14880.557686668868 -385.60269653851333 -999889.20401887211
 14291.119619570703 -799.10907492454533 -999897.55741511122
 13822.838970796429 -1112.5698513711591 -999903.84103228291
 13440.973955039335 -1342.2219020426412 -999908.76516785566
 13118.46580229852 -1498.0062187185633 -999912.8271166255
 12832.419500649692 -1584.7748916782632 -999916.40525511035
 12561.393994224514 -1602.8790660254263 -999919.81786522327
 12283.116944847568 -1548.3568022764798 -999923.36087788851
 11972.142479008164 -1412.6987438325182 -999927.3334031438
 11597.084108132029 -1182.0366895623347 -999932.05290632311
 11117.329360939415 -835.62652719387756 -999937.85142687114
 10479.364429364705 -343.79337070544483 -999945.03085283388
 9612.8225627713528 334.23080971436076 -999953.73989607277
 8426.1621661364552 1251.9628699602715 -999963.71553177969
 6802.5484867877758 2474.9223397942092 -999973.79970352084
 4597.725592681446 4073.8289855299222 -999981.13224038936
 1644.8131272047679 6105.9526439017509 -999980.00576615881
 -2215.7885633688256 8568.3815913209473 -999960.8357920564
 -7029.957528105595 11286.688715685228 -999911.59126944223
 -12420.827916960974 13670.471999545463 -999829.40606343804
 -16942.533733467542 14401.197315805852 -999752.74746637302
 0 0 0
 -0 -0 -0
 0 -0 -0
 0 0 -0
 41958.912388143261 12846.130922210223 -999036.74936987867
 36691.151488562311 10773.071222034954 -999268.58268379897
 31124.786937190638 8223.618181568605 -999481.67554093665
 26567.203013270555 5880.1192474730551 -999629.73541291128
 23071.965149308126 3936.5314897840667 -999726.05654948251
 20447.979657033604 2398.0948433057979 -999788.04217147361
 18490.484723017158 1206.5350541016419 -999828.30838493013
 17029.579019253633 290.70551915957037 -999854.94394373428
 15934.214231879583 -413.76244642826765 -999872.95673873019
 15106.287941559627 -958.34910988571221 -999885.43425315002
 14473.596255618992 -1381.3363752446492 -999894.29787415406
 13983.49409463554 -1709.8241170493764 -999900.76427333255
 13597.559702565526 -1962.2741760970357 -999905.6234716319
 13287.204365334665 -2150.6980789251188 -999909.40824553079
 13030.098149005516 -2282.2420595765789 -999912.50012859073
 12807.337719457415 -2360.174073873382 -999915.19724368665
 12601.19143496803 -2384.4055183427186 -999917.7589105732
 12393.161894080253 -2351.6374199667944 -999920.43650468148
 12162.048178442659 -2255.1583723284589 -999923.49649601744
 11881.747103455857 -2084.2390826220794 -999927.23736940767
 11518.581177131975 -1823.1114028567588 -999931.99696403288
 11027.986907812232 -1449.592160272103 -999938.13918028446
 10350.302190204779 -933.56137483918769 -999945.99839577882
 9405.2877407188771 -235.6575344177225 -999955.74153461447
 8085.1084882600389 692.91383281793708 -999967.07490354567
 6246.080634251537 1907.798882129799 -999978.6731626509
 3701.701719514188 3462.9882185949173 -999987.15247595939
 227.87343122781803 5388.9779551863003 -999985.45338934683
 -4380.7776376712982 7641.4946829597375 -999961.20742071769
 -10057.530341899641 9986.6420399980125 -999899.55148714164
 -15430.455399315488 11770.11832328029 -999811.66494536644
 -0 0 -0
 -0 -0 -0
 0 0 -0
 45951.146949176895 10849.828706434762 -998884.76478075096
 40791.617437008805 9789.386462147806 -999119.7184820082
 34444.251703309063 7558.9201936933669 -999378.03470463806
 28954.016358935136 5363.7826174238235 -999566.35336165619
 24728.6590756933 3498.5731397161121 -999688.07805550226
 21592.249990486245 1997.7408737735088 -999764.86424146243
 19286.200179213643 821.32883958565549 -999813.66659072263
 17589.107897394177 -89.999210418746017 -999845.29562503623
 16333.06634669807 -794.2520159672921 -999866.29111469188
 15395.826410718819 -1340.4818156633733 -999880.5786880916
 14689.709692025875 -1766.9733779199094 -999890.53912628128
 14152.162262240021 -2101.9904899966582 -999897.64373123855
 13738.497634784268 -2365.5017798420399 -999902.82432047778
 13416.450675060514 -2571.0399555889344 -999906.68994903227
 13162.073530242613 -2727.2909466591209 -999909.65677128895
 12956.622607236084 -2839.2662817505311 -999912.02837929444
 12784.165779115778 -2909.0743723423816 -999914.04750189814
 12629.690158796591 -2936.3399875559417 -999915.93088317674
 12477.463873652057 -2918.3383447926703 -999917.89472765557
 12309.418752439236 -2849.852397309779 -999920.1750896374
 12103.304579490336 -2722.7604409597971 -999923.04533590865
 11830.379646740374 -2525.3382426527564 -999926.82971514191
 11452.338384073824 -2241.316906043754 -999931.9079037651
 10917.09345882725 -1848.7623285710874 -999938.69769514538
 10152.875028124859 -1318.9564888789437 -999947.58836773213
 9060.0740085890466 -615.63024341300002 -999958.76717910822
 7500.5252852355034 304.74819046008923 -999971.82422755577
 5285.5023030882094 1490.2884257393837 -999984.92113921989
 2169.585297607101 2985.6074298822705 -999993.1895007639
 -2122.2577477108048 4811.4292882356913 -999986.17298953503
 -7738.4807762443397 6909.4283135153137 -999946.18640987691
 -14124.727965372753 8941.089702701167 -999860.2647244425
 -19071.108044489865 9603.9093137544442 -999772.00289058348
 -0 -0 0
 0 0 -0
 44497.888182352348 8380.9593595971673 -998974.32272682746
 38708.433170727651 6923.1940474176081 -999226.56419134932
 32339.374601218497 4961.7175429717263 -999464.62979408412
 27154.947500131577 3171.0781427894208 -999626.20668411709
 23275.183464144397 1705.057068362614 -999727.64221817139
 20445.939740935792 548.24076653992665 -999790.80960977613
 18392.170202812715 -351.97260206849342 -999830.78777887113
 16894.649456172632 -1049.9899598520713 -999856.72390639898
 15793.40139699762 -1592.728743679656 -999874.00790672726
 14975.368865479073 -2017.6475794591327 -999885.82719507918
 14361.531853855011 -2353.1881747906637 -999894.09884658514
 13896.718391888571 -2620.0772332025153 -999900.0032069349
 13542.155006560331 -2832.8438832706429 -999904.28793625603
 13270.122313693118 -3001.2446330548942 -999907.44390890107
 13060.117172342676 -3131.4320408043886 -999909.80966926157
 12896.053193484309 -3226.8294609077216 -999911.63578771369
 12764.178269803733 -3288.7131690145025 -999913.126285873
 12651.441916698534 -3316.5498066981377 -999914.46709946566
 12544.09731773499 -3308.1102164812355 -999915.84747381567
 12426.310527365333 -3259.389783151245 -999917.47818753496
 12278.562498929739 -3164.3245085000553 -999919.60874530545
 12075.577120498532 -3014.3128877924473 -999922.54417780857
 11783.462997805784 -2797.5297843363651 -999926.65922400786
 11355.625138308042 -2498.0562637090616 -999932.40246159711
 10726.883583332816 -2094.8443528672433 -999940.27101408748
 9805.1204441685713 -1560.6162939880528 -999950.71083021804
 8459.9728095645114 -860.88737129489743 -999963.84321284108
 6509.2617322512951 46.331605750947396 -999978.81345810706
 3708.3583672393484 1208.4089191181774 -999992.39388412551
 -237.52190418742268 2667.2097133010607 -999996.41478141816
 -5571.6001205755856 4415.6441110881979 -999974.72936028789
 -12090.638349683491 6246.6693758880892 -999907.39350502111
 -17901.869519577423 7455.2609733971967 -999811.95339499845
 0 0 0
 -0 -0 0
 42587.734976633139 6396.3776804846502 -999072.25523589074
 36672.102297909245 4705.3723798361134 -999316.27445159666
 30549.022342455188 2955.0488802921159 -999528.90149311628
 25706.318462910211 1497.8119329368549 -999668.41590124147
 22136.780746263703 350.51440008852751 -999754.8899994673
 19559.876561298501 -538.64746113769581 -999808.54221586837
 17703.730046398337 -1226.3280915415689 -999842.5246316822
 16358.58782163686 -1760.3900945727357 -999864.63965438667
 15374.196129221571 -2178.4456148954637 -999879.43696631899
 14646.039708965571 -2509.0285300647265 -999889.59305349248
 14102.185968114856 -2773.184084360837 -999896.71356643364
 13693.136987206608 -2985.9841107450825 -999901.7861261873
 13384.525067051369 -3157.8636389602261 -999905.43672187708
 13151.980604239589 -3295.7308269809837 -999908.07755738299
 12977.524547418203 -3403.846418233572 -999909.9947926224
 12847.010305475827 -3484.4688136348173 -999911.4024768885
 12748.253726579407 -3538.2979113049487 -999912.47740730457
 12669.598037549642 -3564.7321633801389 -999913.38323385292
 12598.684492069156 -3561.9738083908933 -999914.28907264723
 12521.236356195208 -3526.9811410576945 -999915.38594230218
 12419.630707332262 -3455.2827793969541 -999916.90344448527
 12271.017320585712 -3340.6316860847442 -999919.12788677868
 12044.650684455817 -3174.496565300311 -999922.42147150927
 11698.016381571562 -2945.3497704960969 -999927.23801658
 11171.179219983031 -2637.7278483048794 -999934.12140332186
 10378.70240030632 -2231.001609915897 -999943.65099654626
 9198.5897176734052 -1697.8299224563989 -999956.25070337986
 7458.6395255572197 -1002.3718939611058 -999971.68157254031
 4923.9698385323645 -98.985211004961414 -999987.87228793767
 1300.4119097872747 1065.4695150354637 -999998.58685079019
 -3695.9514326158792 2534.4315561563253 -999989.95824942889
 -10022.702395676828 4272.8414883551877 -999940.64236948744
 -16059.155983662511 5910.6112356846488 -999853.57337157766
 -0 0 -0
 47802.154667815194 5590.0516771298226 -998841.18123521586
 42112.437601239471 4524.1289316089487 -999102.63479619136
 35162.242339436692 2810.5279686627073 -999377.66517278133
 29153.071082349921 1334.4429054588306 -999574.06814532727
 24583.39022534679 186.42437640422227 -999697.76541261724
 21262.039285180079 -691.38677638522825 -999773.69822863454
 18882.091050930423 -1363.5697234969368 -999820.78759903449
 17176.849572591782 -1882.1803662735447 -999850.69547199353
 15946.422759600089 -2286.5157594998764 -999870.23330372933
 15049.494321957776 -2605.630475735863 -999883.354902199
 14388.735219884862 -2860.7376922990989 -999892.38444876042
 13897.809850991231 -3067.0882401937743 -999898.71679639257
 13531.511481098014 -3235.4107532714916 -999903.21047304082
 13258.724160402517 -3373.0181496567266 -999906.41011156654
 13057.512460003576 -3484.6666726635781 -999908.67506314651
 12911.719290475114 -3573.2031742309173 -999910.25583501218
 12808.580418519012 -3640.0433113186232 -999911.34124598978
 12737.01649650652 -3685.4942693422695 -999912.08890719898
 12686.330380104855 -3708.9557336319012 -999912.64651911089
 12645.109773043056 -3709.0012580444427 -999913.16848439153
 12600.129274234017 -3683.3613355083407 -999913.83108323126
 12535.059187691959 -3628.7927741279946 -999914.84845168865
 12428.726898371955 -3540.8378461228917 -999916.49112065008
 12252.632101440648 -3413.4355023207168 -999919.10746052756
 11967.293470411189 -3238.360644556029 -999923.14550035738
 11516.905175951819 -3004.4154164011406 -999929.16468276561
 10821.663373381874 -2696.2970818888525 -999937.80885807076
 9767.2301281070741 -2293.0099590182876 -999949.67039394146
 8191.5007258044052 -1765.7310958254404 -999964.89013842703
 5871.4723689865095 -1075.2071989203941 -999982.18471215747
 2521.1113502053481 -169.61700820553341 -999996.80760871957
 -2164.3417767087858 1012.7818081429216 -999997.14494476584
 -8308.1370682374782 2513.9387617442781 -999962.32677554293
 -15209.03014886657 4169.86447732745 -999875.64108351571
 -20484.66804775858 4902.8999154977964 -999778.14536395587
 47184.668514070276 2902.3308840534528 -998881.96676717349
 40960.544593792467 2114.0384474776129 -999158.52827668062
 33906.101418424303 970.55694853400951 -999424.55158246611
 28089.773086606096 -61.382500128682082 -999605.40258650645
 23742.993361678462 -882.07527793463464 -999717.70625983784
 20609.57645521126 -1514.6831865243998 -999786.45274537569
 18375.608613009405 -2001.5274052914353 -999829.15085335809
 16781.074337420992 -2379.5693263248172 -999856.35628019227
 15634.424931876312 -2677.0045026474286 -999874.19128805527
 14801.452939718649 -2914.4579567383089 -999886.20498819358
 14190.348598916231 -3106.7425662375344 -999894.4855119806
 13738.941168644402 -3264.3365770344467 -999900.28782987979
 13405.140981695587 -3394.4962146571852 -999904.38522426202
 13160.14745598909 -3502.0874040101348 -999907.2686518241
 12983.740113689042 -3590.201770435885 -999909.26235529361
 12861.027836392555 -3660.6189780717345 -999910.59291903139
 12780.198495870285 -3714.1373421431194 -999911.43193295365
 12730.915213379247 -3750.8075549228579 -999911.92374154413
 12703.115901744774 -3770.0726388437815 -999912.20484534791
 12685.998905367311 -3770.8378488545918 -999912.41927165329
 12667.02008286907 -3751.4607969423369 -999912.73276426934
 12630.692835629345 -3709.6737079047339 -999913.34820546978
 12556.971229362809 -3642.4121785592574 -999914.52400046005
 12418.906776945216 -3545.5443382997432 -999916.59645682981
 12179.199097856601 -3413.4501508939916 -999920.00453406374
 11785.119773779123 -3238.413732090632 -999925.30902483803
 11161.212253803367 -3009.743557874921 -999933.18216005864
 10199.193435617313 -2712.5647190457698 -999944.30767213623
 8745.0618702144493 -2326.2745498380782 -999959.05533156951
 6585.484650485284 -1823.0293178877218 -999976.65370548726
 3441.9594420124995 -1167.8731693729112 -999993.39447191334
 -1000.3596478905384 -326.63205984547187 -999999.44629588281
 -6951.4901358475436 697.10350373445578 -999975.59511799878
 -14056.410236559403 1739.1076472807342 -999899.69138701737
 -20142.889655770483 2302.0594570248909 -999794.46113617357
 46500.922760001158 473.35603615369132 -998918.13484215597
 40081.779554679226 29.655519385380341 -999196.40214938729
 33035.249924871663 -619.29947114608331 -999453.99530471931
 27353.416901085511 -1245.7336825294531 -999625.0490716144
 23156.046442991767 -1767.8571923430688 -999730.29972792044
 20149.547929307537 -2181.7858348783579 -999794.59666914353
 18014.784599990682 -2506.5993598189752 -999834.5785656072
 16495.855685454979 -2763.171879853564 -999860.11602942098
 15406.805407401247 -2968.548220717656 -999876.9014576741
 14618.294035616758 -3135.4309280779166 -999888.23103004042
 14042.284885179814 -3272.9365147897956 -999896.04565763404
 13619.428099231462 -3387.4531647526437 -999901.51331984007
 13309.714493892059 -3483.3435979271071 -999905.35442984302
 13085.873991488394 -3563.4709213346359 -999908.02655887895
 12928.803496012843 -3629.5937813687628 -999909.83197943598
 12824.430664317908 -3682.653626499266 -999910.98205810494
 12761.544297867451 -3722.9890344339974 -999911.63726590527
 12730.268377880057 -3750.4802741849858 -999911.93320448988
 12720.918176784155 -3764.6473548799668 -999911.9989634254
 12723.050768873081 -3764.6940519031805 -999911.97165441932
 12724.515780619338 -3749.5142130463842 -999912.01004954183
 12710.329295375454 -3717.6431673950042 -999912.30948442826
 12661.133561502145 -3667.1612475101419 -999913.12003859738
 12550.968077691137 -3595.5191069460197 -999914.76908917818
 12343.959669804164 -3499.2770882831287 -999917.6874720885
 11989.446166803069 -3373.7117812713564 -999922.43261636584
 11414.909614481028 -3212.2732404212497 -999929.68809767929
 10516.105607218173 -3005.8771916734063 -999940.18632374518
 9144.1323092124167 -2742.1829191972843 -999954.43160033517
 7090.7838295615184 -2405.4212264266976 -999971.96697377751
 4078.5608948935396 -1978.6090537056411 -999989.72517083352
 -223.16553464327828 -1452.9755174100908 -999998.91952906118
 -6088.1129494039806 -854.4472501915883 -999981.10222174285
 -13306.828338734007 -292.96654984163553 -999911.41732163657
 -19727.083031010457 27.573947843085438 -999805.40178314946
 46005.745865968885 -1391.2630347849072 -998940.20628588367
 39536.168453872553 -1619.8125782339594 -999216.82711571571
 32513.024276658572 -1937.1093801165334 -999469.43468003825
 26906.770049631337 -2249.9578405463749 -999635.41524658492
 22793.275474071648 -2519.592475514989 -999737.02454541554
 19859.393769314105 -2740.8533473289635 -999799.02590572857
 17782.283440678195 -2920.7001203084083 -999837.61676906457
 16308.014974068537 -3067.9775111413155 -999862.30860133772
 15253.719426000793 -3190.1726841320537 -999878.56604785658
 14492.802312403222 -3292.9036895565096 -999889.55163379153
 13939.357088920042 -3380.1754604681637 -999897.12907768879
 13535.611415261197 -3454.7499380662712 -999902.42120242922
 13242.712029430664 -3518.4559881248783 -999906.12111616018
 13034.226951898456 -3572.4308944609925 -999908.66916197457
 12891.660732646655 -3617.2975427558217 -999910.35610300663
 12801.373553211222 -3653.3027506743779 -999911.38518078846
 12752.464958301978 -3680.4151506816743 -999911.91071104165
 12735.280570746329 -3698.4016477617438 -999912.06336059165
 12740.308569051003 -3706.8737326930213 -999911.96793752571
 12757.256212211107 -3705.3200095911857 -999911.75761542213
 12774.141246718151 -3693.111394857805 -999911.58721340657
 12776.198936953393 -3669.4922968571245 -999911.64788045478
 12744.397902611781 -3633.5384626633695 -999912.1850044335
 12653.269736811502 -3584.0897535043596 -999913.52079347661
 12467.690868783247 -3519.6319235644683 -999916.08091655548
 12138.108039321971 -3438.1309917695557 -999920.41962773667
 11593.593492419517 -3336.7969604168729 -999927.22453985491
 10732.029792242058 -3211.8097915464932 -999937.25193854084
 9406.9889023081741 -3058.0982214482465 -999951.07710080466
 7412.0972292103579 -2869.5410617358275 -999968.41277550347
 4468.0858584846574 -2640.5319956600861 -999986.53180907422
 232.1581587759506 -2370.9356196270828 -999997.16237941221
 -5601.7846091919109 -2076.9408669018794 -999982.15300365607
 -12870.323760958894 -1805.1363516470249 -999915.54455815919
 -19400.443873683795 -1629.0549324516408 -999810.46651729511
 45749.840423889473 -2971.1180478556785 -998948.50946319266
 39286.362727447005 -3044.4288714605636 -999223.35498951073
 32288.887785409475 -3104.8765929000333 -999473.7552667025