# OOMMF OVF 2.0
#
# Segment count: 1
#
# Begin: Segment
# Begin: Header
#
# Title: Oxs_TimeDriver::Magnetization
# Desc: Oxs vector field output
# Desc:  MIF source file: /mnt/gpfs/work/plgrid/groups/plggspinsym/MF/switching-obrazki/p-ap/Anisotropy.mif
# Desc:  Iteration: 41400, State id: 289950
# Desc:  Stage: 0, Stage iteration: 41400
# Desc:  Stage simulation time: 6.0951e-09 s
# Desc:  Total simulation time: 6.0951e-09 s
# meshunit: m
# meshtype: rectangular
# xbase: 1.0000000000000001e-09
# ybase: 1.0000000000000001e-09
# zbase: 3.4999999999999998e-10
# xnodes: 35
# ynodes: 35
# znodes: 5
# xstepsize: 2.0000000000000001e-09
# ystepsize: 2.0000000000000001e-09
# zstepsize: 6.9999999999999996e-10
# xmin: 0
# ymin: 0
# zmin: 0
# xmax: 7.0000000000000005e-08
# ymax: 7.0000000000000005e-08
# zmax: 3.4999999999999999e-09
# valuedim: 3
# valuelabels: Magnetization_x Magnetization_y Magnetization_z
# valueunits: A/m A/m A/m
#
# End: Header
#
# Begin: Data Text
 -0 0 -0
 0 0 -0
 -0 -0 0
 -0 0 0
 0 0 0
 -0 0 -0
 0 0 0
 0 -0 0
 -0 0 0
 0 0 0
 0 0 0
 -0 -0 0
 0 0 0
 23951.669093415177 33324.015292349191 -999157.55892273318
 21507.203263867519 32747.247307257978 -999232.23426867276
 19151.430097448989 32149.982402200698 -999299.55536703835
 17306.767117380918 31759.60226339769 -999345.68767569901
 15736.832227083514 31614.281257783205 -999376.25013405748
 14124.192842754226 31718.690253129414 -999397.03414867434
 12140.418427727618 32079.896847901065 -999411.57210562041
 9513.821748242719 32669.32629506454 -999420.93349857803
 6617.1251829180101 33258.767794366453 -999424.8686215058
 0 0 0
 -0 0 -0
 -0 0 -0
 -0 0 0
 0 -0 0
 -0 0 0
 -0 -0 0
 0 0 0
 0 -0 0
 0 -0 -0
 0 -0 0
 -0 -0 0
 0 0 -0
 -0 -0 -0
 -0 -0 -0
 -0 -0 -0
 -0 0 -0
 0 0 -0
 0 0 -0
 -0 -0 0
 0 0 0
 0 0 -0
 0 0 0
 28804.867578184825 31236.601627094278 -999096.86933880101
 26659.355849448239 29854.334775425548 -999198.67766165966
 24962.276322897425 27981.465159092666 -999296.71387848048
 23291.259233525932 27426.615557369023 -999352.43933378439
 21027.571755736444 26239.934613788948 -999434.49363003368
 18991.794485133596 25388.905354500981 -999497.23122534703
 17355.711074534407 24909.671686708429 -999539.03753158019
 15935.999543070213 24742.217623623415 -999566.83947879553
 14483.567665915405 24867.337175632649 -999585.83513846388
 12746.007788832354 25318.258117135094 -999598.18181675451
 10536.178829459246 26168.538957326335 -999602.01905784092
 8056.6744994327382 27384.947241181941 -999592.49429985613
 6350.2990706207775 27905.259369028034 -999590.40121504816
 4302.9635371488739 29683.104447716523 -999550.09770153288
 1608.2633770003379 31032.49240329512 -999517.08234734519
 -0 0 -0
 0 -0 0
 -0 0 -0
 0 -0 -0
 -0 0 0
 -0 0 0
 -0 0 -0
 -0 0 0
 -0 0 -0
 -0 0 0
 0 -0 -0
 -0 0 -0
 -0 0 0
 -0 0 0
 -0 -0 0
 0 0 -0
 0 -0 -0
 -0 -0 0
 33637.948662262686 28785.031710743104 -999019.47446444049
 31007.731128674244 27103.368804955437 -999151.60411704995
 28197.340634341621 25881.864968733425 -999267.25106294325
 25547.408527735271 23793.710973126679 -999390.4088171171
 23519.674943470411 21763.346317743111 -999486.45896160463
 21787.960353483897 20215.034823008871 -999558.22099102335
 20055.494157463469 18922.985947911944 -999619.77659353812
 18512.794265973022 18053.998575449936 -999665.60888324224
 17211.896236662098 17567.806342520638 -999697.51565573597
 16047.620996224548 17397.772748653435 -999719.85644166707
 14862.581585010365 17522.000579297783 -999736.00673594233
 13499.993287339901 17972.511810071417 -999747.3375810904
 11859.686276328943 18821.935057853629 -999752.51067556965
 10010.666475566553 20101.828207256021 -999747.81973227672
 8162.2285103171725 21611.497430147472 -999733.12499115081
 5887.5493062714559 23594.795139136724 -999704.2674738908
 2884.9553853733914 25683.319471518807 -999665.96627741028
 -210.48346273922826 26872.285114486851 -999638.8527810619
 -3456.2687002753432 28491.772657385645 -999588.05169805384
 -0 0 -0
 -0 -0 -0
 0 0 -0
 -0 0 0
 -0 0 -0
 0 0 -0
 0 -0 -0
 -0 -0 -0
 -0 -0 0
 0 0 0
 0 0 0
 0 0 -0
 -0 0 0
 0 0 0
 -0 -0 -0
 35931.16077054444 25205.510070845932 -999036.35266578244
 32798.585822276844 24065.423410878382 -999172.21146512753
 29246.616375751688 21618.058620779786 -999338.42864769185
 26233.523012941539 19321.750938087687 -999469.0951755417
 23793.478409044132 17184.585903930583 -999569.18739650468
 21921.989333669961 15378.562480897903 -999641.39880242816
 20419.180156913117 13961.689292280171 -999694.01734421984
 19108.952617647235 12880.299123330642 -999734.43765049428
 17973.416777749302 12144.508076585073 -999764.70592480444
 16991.866775780163 11719.433745731005 -999786.94297142804
 16094.307903974644 11564.172869959497 -999803.60229343362
 15184.937303305103 11664.633021891124 -999816.6602010387
 14168.701215512159 12040.917497670376 -999827.11716160225
 12978.081537634785 12736.458425015862 -999834.66234492487
 11594.835888610505 13781.591793632631 -999837.80059985211
 9992.9190887122986 15158.017766515246 -999835.17444900726
 7957.0423729203758 16929.128264391675 -999825.02973914554
 5283.3923254708561 19051.676426217036 -999804.5405932531
 1970.9185848599498 21336.968134560077 -999770.3982769025
 -2046.6676303695783 23798.716735308448 -999714.67541162134
 -5658.3598969161485 24950.390390164903 -999672.67692112888
 -0 -0 -0
 0 -0 0
 -0 0 -0
 -0 -0 -0
 0 -0 -0
 0 -0 -0
 0 0 -0
 0 -0 -0
 -0 0 -0
 0 0 -0
 -0 0 0
 -0 0 0
 -0 0 -0
 37104.85682561576 23031.842374594165 -999045.92679054698
 34179.929195810582 21255.973968285078 -999189.629655367
 30333.198455565827 18539.709028486326 -999367.88834772666
 26887.234094842916 15877.729840763306 -999512.36827656755
 24176.860372458643 13644.724893740253 -999614.57617679064
 22107.86001429765 11807.440699615534 -999685.86409417307
 20543.288769610608 10338.113746076657 -999735.51336876163
 19326.431923244621 9201.6786477535225 -999770.88282224943
 18331.489294756793 8353.7991678863982 -999797.06467847701
 17494.465014166683 7769.7779273927645 -999816.77033585857
 16769.132325077582 7421.7339484065669 -999831.84289472573
 16100.76892451845 7285.9285513030109 -999843.82804775296
 15426.381345623162 7354.560355888977 -999853.95793613326
 14683.025561873603 7639.3387044628053 -999863.01524984301
 13815.69828277066 8166.1067373898686 -999871.21229772037
 12775.674677586598 8962.2799513777136 -999878.22242241353
 11490.390872582067 10052.101621196945 -999883.4562940785
 9817.4592057657628 11484.829387137632 -999885.85157941491
 7588.8941552412516 13301.438685695966 -999882.73333145981
 4652.4563625914343 15530.249426022028 -999868.57436493109
 879.04814993372804 18212.006448656823 -999833.7612300677
 -3393.3594033156537 20963.693904748183 -999774.47889502952
 -6798.5805542325688 22721.396639133123 -999718.71915915166
 0 -0 -0
 -0 0 -0
 0 0 0
 0 0 -0
 0 -0 0
 -0 0 0
 -0 0 0
 0 -0 0
 -0 -0 -0
 -0 -0 -0
 0 0 0
 37989.342228002832 21716.976212427438 -999042.13265571161
 35098.247401662098 19581.752911279782 -999192.00756523933
 31222.210213702463 16500.727723091437 -999376.25525823841
 27584.082634457129 13594.940775906081 -999527.03613785026
 24627.342337578822 11183.661375857258 -999634.142938114
 22373.006125746822 9277.9939568890077 -999706.64068267227
 20689.271789430048 7784.8050624971102 -999755.6455669367
 19432.373538820386 6624.8102936430678 -999789.22516059398
 18475.139854665824 5738.8451519452019 -999812.84991926001
 17719.703461911497 5082.1109131556441 -999830.07769214874
 17100.816830357377 4624.6693292948412 -999843.07493592671
 16570.112498547383 4343.9934142773136 -999853.26978162245
 16082.770399450337 4225.0699635394376 -999861.73708172364
 15593.230370053072 4263.5727079110193 -999869.328019612
 15055.502054768185 4467.0304972325439 -999876.68114443787
 14423.181607754563 4852.8868411165258 -999884.20395644661
 13644.257728459937 5445.2106173742641 -999892.08613348473
 12646.640123335257 6275.65955354178 -999900.33432875632
 11322.474696391449 7392.2569814584449 -999908.57387236645
 9534.1318293459717 8857.6637181572787 -999915.31747629342
 7124.522373465712 10753.329821413647 -999916.80007823755
 3942.7614970282384 13173.829407016221 -999905.44795522152
 -7.8597670666191535 16101.399536711702 -999870.36403284979
 -4308.1669700401253 19197.82973328801 -999806.42277937476
 -7694.2495846136335 21288.419566716981 -999743.76803042949
 0 -0 0
 0 0 0
 0 -0 -0
 0 -0 0
 0 -0 -0
 -0 -0 0
 0 -0 -0
 0 -0 0
 0 0 -0
 39141.38982025221 20659.606686898198 -999020.08601152839
 36057.917034002479 18447.731942348884 -999179.4172246306
 32034.232385056574 15218.288154266429 -999370.90795217466
 28254.943952313351 12138.892589875255 -999527.04086930177
 25129.724426530935 9586.6676817205844 -999638.23093807639
 22706.016205968754 7581.7458680430891 -999713.43591933709
 20889.862570354107 6037.8369124975552 -999763.5511295707
 19547.889360746442 4852.4164564568764 -999797.14646325808
 18556.071886895141 3943.8852132425905 -999820.0427904781
 17812.752262669306 3253.8331104217427 -999836.04577296483
 17240.558900127013 2741.5797866295698 -999847.61182346428
 16783.483356846034 2379.9861525424194 -999856.31485345133
 16398.898102413277 2151.1076435519576 -999863.21508340957
 16050.070555505121 2044.6383344768574 -999869.09877705702
 15701.850019397556 2058.1157267339286 -999874.60017025319
 15318.439096402672 2197.0655121864597 -999880.25199359993
 14861.04202519908 2474.522395317078 -999886.50664404908
 14283.252203720189 2910.7759613261214 -999893.75240061793
 13523.308085717204 3535.2501332823181 -999902.30630042742
 12496.301000754203 4391.1241074805757 -999912.27639747027
 11091.850456016895 5539.0459044198105 -999923.14195838594
 9175.3342530015307 7061.7916833516774 -999932.96992326761
 6599.6165416944232 9061.1665545458054 -999937.16818716831
 3252.9404324803259 11618.517740565692 -999927.211562949
 -843.67988095297358 14703.812784033138 -999891.53716484213
 -5308.3533611513294 17926.8897017731 -999825.20872911264
 -8912.6957210710389 20073.470565232979 -999758.78072385571
 0 -0 0
 0 -0 0
 0 0 -0
 0 0 -0
 0 0 -0
 0 -0 0
 -0 0 -0
 41160.842611910273 19328.837980764099 -998965.55549117457
 37566.714265414492 17359.575985779451 -999143.32660579518
 33142.77518411669 14232.662921979614 -999349.2821627704
 29071.091262331403 11149.189157591081 -999515.16608501039
 25725.490339522959 8540.841181173686 -999632.55908294069
 23122.029257130307 6471.7803821896432 -999711.70235309179
 21159.4911484267 4875.5480032172582 -999764.22468800517
 19708.46044986531 3655.9414338441734 -999799.08515607694
 18645.706318546185 2724.2655641836805 -999822.44224313076
 17867.8843992605 2011.8488394400501 -999838.33251748339
 17293.763502501493 1469.6265183140051 -999849.37162645452
 16861.907738323036 1063.9313507283971 -999857.26187166607
 16526.517743147444 772.55180826918286 -999863.12932070298
 16252.130100710925 581.58298824398889 -999867.75627000653
 16008.741485160283 483.70790003655503 -999871.73488539469
 15768.241598300237 477.56867867910398 -999875.55949980824
 15501.777869021698 567.57414135078193 -999879.67913269135
 15177.103437818132 763.90800209606471 -999884.52932116238
 14754.973720577094 1083.0760188558879 -999890.55285908293
 14184.315396731627 1549.6475272721825 -999898.19671267923
 13397.110308038949 2199.3654191240835 -999907.83586645976
 12304.442056523938 3082.7798414310732 -999919.54535058828
 10793.878764367799 4268.9384104062174 -999932.63190380426
 8730.8141792607876 5845.1579152587265 -999944.80198294588
 5970.574782112405 7903.7112928803981 -999950.94058887206
 2389.8918569390707 10504.536392901979 -999941.96988229384
 -2024.926125785124 13575.111716685993 -999905.80357154878
 -6928.6432990545909 16673.151779275024 -999836.98666921677
 -11093.271163604371 18553.829932153218 -999766.32006171288
 0 0 0
 0 0 0
 -0 0 0
 0 -0 0
 -0 0 -0
 44503.016039639217 16979.864883021117 -998864.9386938808
 40191.857154503807 15856.273487169032 -999066.16057675204
 35006.89036399305 13193.776929172229 -999299.97592183831
 30351.200106436052 10317.647764074278 -999486.04332262464
 26596.579841010567 7780.0465665070351 -999615.97266959655
 23709.120504366732 5716.2458513006204 -999702.5568329196
 21544.235464501136 4100.5039277022515 -999759.48696963571
 19947.070272294863 2856.8288656762179 -999796.95584472746
 18781.541600542176 1904.2387397815191 -999821.79790697142
 17936.62022915393 1173.4231244452999 -999838.43731521245
 17325.58925876248 611.24468062101175 -999849.71387542912
 16882.56596331513 179.55578215119232 -999857.46320473868
 16558.21030030564 -147.82343107884907 -999862.89251071005
 16315.393469193934 -388.0476418856465 -999866.81980900478
 16125.049672117811 -551.54910355241736 -999869.83081132022
 15962.581886268506 -643.49222291290425 -999872.38280556735
 15804.982065060422 -664.51045003816557 -999874.8726554662
 15628.447813353561 -610.9661834558334 -999877.68168874923
 15406.018029072882 -474.82998547912774 -999881.20751665928
 15104.776561900448 -243.05201440994759 -999885.88681445736
 14682.401954515322 103.8048253997477 -999892.20233853429
 14083.224822124866 593.73655789120517 -999900.65019256249
 13234.032942095473 1265.9977214342925 -999911.62490584981
 12039.629969082964 2173.7795423952562 -999925.15819570667
 10378.715896636138 3385.0110064940391 -999940.41020293953
 8101.8278760355224 4977.5426996420783 -999954.79120495252
 5035.4267044446187 7022.491549776053 -999962.6638481745
 1008.5386797902909 9539.1996128986957 -999953.99220187939
 -4047.6475872370938 12384.019165806223 -999915.12270707788
 -9795.0142927564539 14992.350654782864 -999839.63069926796
 -14782.364010860276 15992.539552071357 -999762.83207214996
 0 0 0
 -0 -0 -0
 0 -0 -0
 0 0 -0
 42970.552433263547 13993.550450891746 -998978.33418415964
 37876.212438460148 12010.824669132164 -999210.25446203456
 32446.193821912675 9494.7705615609175 -999428.38354654214
 28011.148496209807 7134.8981586807786 -999582.14709356846
 24639.831316013813 5148.4551838399793 -999683.13585952751
 22145.914870816261 3557.809103197435 -999748.41857785382
 20325.064305235508 2314.8575845402133 -999790.74470378633
 19006.379889961248 1353.4890535090365 -999818.44631456002
 18057.354119595857 610.95356333297127 -999836.7660263062
 17378.153284312899 35.420316458119146 -999848.9878645814
 16894.644065037439 -412.59580023121038 -999857.19018598914
 16552.163453340112 -761.52244025165999 -999862.71356051043
 16310.323962499922 -1030.8909365488416 -999866.44637977297
 16138.72635091972 -1233.4246619240835 -999869.00150738424
 16013.414989256236 -1376.6942843392676 -999870.82928407774
 15913.974577485284 -1464.2382262291762 -999872.2925551862
 15821.174141016636 -1496.1952555970718 -999873.71795070032
 15714.938156768585 -1469.5431325377092 -999875.43282236462
 15572.365241636817 -1377.9818758114584 -999877.79383619223
 15365.491945540272 -1211.4169310179343 -999881.21000761446
 15058.589117926447 -954.95624705932994 -999886.15699605725
 14604.836006858863 -587.39854018157621 -999893.17115788336
 13942.197831846604 -79.333772399963081 -999902.79968893493
 12988.173114855163 608.79670307314382 -999915.46478975541
 11633.128851817915 1527.7859091544606 -999931.1657225875
 9732.3036998137977 2738.1369767125252 -999948.89112923748
 7098.2953796836146 4302.6334838405182 -999965.55018050817
 3503.4234675590355 6265.3922141426501 -999974.23511029035
 -1271.6724594520433 8600.2876288218631 -999962.20823682018
 -7199.6862786326628 11088.905701849299 -999912.59652422846
 -12961.876771006268 13050.592765803567 -999830.82157884818
 -0 0 -0
 -0 -0 -0
 0 0 -0
 46753.747003828103 11911.303074946891 -998835.42588364321
 41853.791262426937 10959.524045368875 -999063.63610615907
 35660.922038521654 8773.690197773185 -999325.43297950539
 30269.875981428395 6580.0272778111985 -999520.10377435235
 26143.746463121341 4690.4138727307591 -999647.19003185036
 23121.336565701058 3151.2592221632467 -999727.69960661291
 20943.875683841652 1931.3376887681809 -999778.78753555845
 19386.204402920997 976.91473621745365 -999811.59260955069
 18276.564833420282 233.01446149306861 -999832.94248696906
 17489.533777891957 -348.23492524125726 -999846.98576365598
 16934.897563773917 -805.09377086742347 -999856.27020513546
 16548.009997847963 -1166.3775300300458 -999862.39199630311
 16282.393509015472 -1452.7639804305843 -999866.37764175003
 16104.202065665333 -1678.4141216810381 -999868.91020866553
 15988.063289228468 -1852.4694154200492 -999870.46670522494
 15913.892538974807 -1980.2418153856138 -999871.40506497666
 15864.416661316411 -2064.0452721558231 -999872.02181134699
 15823.181280440585 -2103.6895171935012 -999872.59259596746
 15772.841495825051 -2096.6739225064202 -999873.40270136704
 15693.497855286385 -2038.1004724336328 -999874.77229477616
 15560.855976995192 -1920.2875334286837 -999877.07857368758
 15343.966050171077 -1732.0515569214888 -999880.77424423711
 15002.29371009993 -1457.6429980189776 -999886.39677731716
 14481.761085779592 -1075.3892213326917 -999894.55550766806
 13709.257100364117 -556.21014056036574 -999905.86901969707
 12584.970281817734 137.59664641137368 -999920.79665849975
 10972.009148115152 1052.5388445267836 -999939.25174344203
 8683.8742843973105 2241.6263801902414 -999959.78191054496
 5475.2767466638034 3756.4843747214682 -999977.95484185021
 1059.618404434005 5626.7709941213825 -999983.6081941626
 -4759.199109183689 7805.1096847472754 -999958.21427030035
 -11543.720095508725 9971.8528964372363 -999883.64556890726
 -17112.583962362609 10813.369229466911 -999795.09426483908
 -0 -0 0
 0 0 -0
 45456.586241973251 9464.754271724878 -998921.47699096042
 39840.566159890084 8079.0909396347251 -999173.38714441773
 33569.383283088209 6138.2280177728007 -999417.53970139753
 28458.381983426894 4334.7342344957024 -999585.57941479015
 24665.03030005945 2840.5966135233425 -999691.73613228195
 21944.08071161286 1648.5854303781346 -999757.84042327025
 20017.42812318715 710.52853906539201 -999799.3787358182
 18660.084803378904 -25.201695191543401 -999825.88514201052
 17706.804600498421 -603.86402883904771 -999843.03989129921
 17040.458902753071 -1062.1125507309525 -999854.23671518883
 16579.03684407525 -1428.1819281039268 -999861.53833103448
 16265.168778532374 -1722.9352253024217 -999866.2289420598
 16058.404680555146 -1961.1789028870994 -999869.13214501552
 15929.672375703134 -2152.9517968069408 -999870.79682155116
 15857.280406834599 -2304.6361965915235 -999871.60941297875
 15823.996429453446 -2419.8251099460872 -999871.86458237655
 15814.844592437285 -2499.9344865880189 -999871.81229299598
 15815.380579183362 -2544.5736467411975 -999871.69120947295
 15810.218300845616 -2551.6953961137792 -999871.75470051426
 15781.618466096592 -2517.5338421061433 -999872.2931164481
 15707.917656416454 -2436.3242105480899 -999873.65484207089
 15561.57373159063 -2299.7854434367141 -999876.26654997177
 15306.520281468935 -2096.3534876483104 -999880.65074734204
 14894.430571607716 -1810.1707428227633 -999887.43327428098
 14259.305227181048 -1419.8811423145626 -999897.32280468685
 13309.647458396938 -897.35117230851961 -999911.02006398875
 11917.478804053553 -206.56928965000867 -999928.96299091354
 9904.2745164487133 696.71457596488528 -999950.70875273761
 7027.5622323160696 1863.0066090861612 -999973.57093847531
 2985.1541302234309 3339.2226396041588 -999989.96917318215
 -2500.9822275240385 5129.6134482353891 -999983.71594429947
 -9311.9473470445519 7052.3995380057395 -999931.77332124114
 -15631.256511318994 8401.0198548548815 -999842.53094438592
 0 0 0
 -0 -0 0
 43650.961948270735 7521.1415585725417 -999018.53133495327
 37845.266990851829 5853.4115582243094 -999266.46763489523
 31778.496446948913 4095.8249687805842 -999486.54387210042
 26992.321099085755 2614.4411288656438 -999632.2220193122
 23502.382628827509 1436.1412680831884 -999722.7493205436
 21030.699672974173 513.19276061480309 -999778.69866508723
 19300.29011957004 -209.33275830132891 -999813.71013859217
 18094.794097617258 -778.25616128679815 -999835.9729195144
 17258.177678024123 -1230.4413613086942 -999850.30945501546
 16681.512715352859 -1593.9249035286934 -999859.58341005538
 16289.699742593588 -1889.4784800924767 -999865.52873542439
 16031.00713141772 -2132.0692081298703 -999869.2219941786
 15869.466939573706 -2332.1251946435023 -999871.35233045358
 15779.483918285938 -2496.5935587443073 -999872.37931041722
 15742.032725124647 -2629.7873811733689 -999872.62820021797
 15741.931453016832 -2734.0282435896656 -999872.35019460937
 15765.845559764621 -2810.095539672363 -999871.76251599577
 15800.744375542987 -2857.5002175046075 -999871.07727430819
 15832.613749276001 -2874.5953732986945 -999870.52413965377
 15845.221193989068 -2858.5316538708817 -999870.37047914229
 15818.749428875195 -2805.0519805948493 -999870.94109684601
 15728.054133251426 -2708.1149602339178 -999872.63910287281
 15540.255570514693 -2559.3279964954886 -999875.96745646873
 15211.23477135243 -2347.1732541079964 -999881.5475417308
 14680.46557671512 -2056.0057009330676 -999890.12234895513
 13863.42697851222 -1664.8056321508848 -999902.51215536939
 12640.836731534575 -1145.6712635073677 -999919.44509749534
 10844.55420339332 -462.12313845912132 -999941.0893079323
 8242.8406095220707 432.24008985774879 -999965.93379334221
 4537.6292400211423 1592.1439047354065 -999988.43743248715
 -579.00657892117954 3065.7036783178528 -999995.13309432578
 -7130.4676916940562 4828.3897641686763 -999962.92085395975
 -13588.680186812095 6520.008617267642 -999886.41217810882
 -0 0 -0
 48543.503041328077 6683.9006618808444 -998798.70533777645
 43132.046033997191 5669.7898454867864 -999053.29191591614
 36312.708347995125 3946.1751029759903 -999332.68480245839
 30359.259114883935 2440.2629682964821 -999536.07263702143
 25844.594772492506 1259.1675930666017 -999665.179656678
 22601.78134815894 348.04993259024684 -999744.48652699962
 20325.932302337653 -357.4622061628146 -999793.3429948471
 18745.149753270478 -909.59984476886484 -999823.88048538333
 17653.032822104291 -1347.6516711422921 -999843.26485062391
 16902.552741308675 -1700.4632243431572 -999855.69565595337
 16391.993675096845 -1988.9486547587151 -999863.66401955229
 16051.865830912071 -2228.0655106621061 -999868.6780409849
 15834.767633488244 -2428.2976082337818 -999871.67351851682
 15708.041568123201 -2596.7753876815159 -999873.24906093976
 15648.605411884582 -2738.1291461698875 -999873.80393599777
 15639.324765655358 -2855.1356106653629 -999873.62187504431
 15666.456571774046 -2949.1922516066497 -999872.92412763508
 15717.793869650006 -3020.64490416629 -999871.90512596862
 15781.266398821936 -3068.9842391686384 -999870.75813156448
 15843.777737313425 -3092.9244338190865 -999869.69577313284
 15890.111316608187 -3090.3673078941761 -999868.96841148543
 15901.702928380342 -3058.2517161519518 -999868.88287435856
 15855.068322286346 -2992.2765198105994 -999869.82307184604
 15719.577759834128 -2886.4813704793833 -999872.27339313214
 15454.182074941491 -2732.6550506249519 -999876.84284254175
 15002.52083039283 -2519.5286551488502 -999884.28147665644
 14285.706395952049 -2231.6797278660365 -999895.46363525477
 13192.017031065187 -1848.038594132935 -999911.27378383279
 11563.212725604431 -1339.8572197535154 -999932.24615175463
 9179.2702110193932 -668.09804790561952 -999957.64642478316
 5750.4122479938651 219.18341334140831 -999983.44222172478
 947.66946954006653 1386.0071418981422 -999998.59045239608
 -5425.3482867372541 2885.2084397936715 -999981.12040589366
 -12816.906370129907 4594.2855772045505 -999907.30542942567
 -18877.505280994817 5479.7056126301432 -999806.78764487524
 48024.406516328359 3963.8729485009871 -998838.29726838286
 41988.821614205161 3210.8152168422453 -999112.92130824411
 35031.322117830307 2058.5731333071863 -999384.09470399888
 29266.81157797603 997.79713622904967 -999571.1371087773
 24976.107927518991 144.40561945039241 -999688.03792973852
 21921.69553473618 -520.86797311715998 -999759.55507383717
 19791.106733601704 -1040.2341894619906 -999803.5957162237
 18319.466838439388 -1451.1290942578039 -999831.13142125518
 17309.137730539012 -1782.0123403321904 -999848.59763018333
 16620.517933667485 -2053.4771952119509 -999859.76097402046
 16157.609574921669 -2280.1068530124394 -999866.85751932161
 15855.214402844747 -2472.0590718384824 -999871.24226081511
 15669.126157518549 -2636.2606869518072 -999873.75633879413
 15569.064824580342 -2777.2842897968685 -999874.93763593317
 15533.703087067472 -2897.9933780420502 -999875.14505701361
 15547.20256865432 -3000.0147960587565 -999874.6343434822
 15596.776628292158 -3084.0783656421122 -999873.60652206524
 15670.952240743118 -3150.2458242312478 -999872.24044230534
 15758.262089321417 -3198.0463424036029 -999870.71648064384
 15846.183982252907 -3226.5261588241237 -999869.23544138856
 15920.136661099483 -3234.2189294137984 -999868.03583103349
 15962.364753436621 -3219.0339450466058 -999867.41157612449
 15950.48138287198 -3178.0576946150895 -999867.73229909991
 15855.395668533491 -3107.2521272614672 -999869.46718679811
 15638.219697148952 -3001.0263025915824 -999873.21192530962
 15245.630378315822 -2851.636964085676 -999879.71222592203
 14602.984569252385 -2648.3548526440045 -999889.86346409388
 13604.442212091195 -2376.3082981917591 -999904.63160791981
 12099.670831285295 -2014.943915509981 -999924.7661533301
 9878.3653269455353 -1536.2688549718173 -999950.02763961779
 6659.3523760626822 -904.03559096610775 -999977.41761780879
 2108.1729418472091 -78.84505318465969 -999997.77469267626
 -4041.6218959486578 951.70771194899623 -999991.37973528611
 -11541.041637716986 2057.5344562459782 -999931.28309393243
 -18267.071285230209 2742.0012770517574 -999829.38321278442
 47424.306371959625 1471.0336917923364 -998873.75139454752
 41138.103144961278 1053.2372486910131 -999152.91480380157
 34150.566104254816 404.12334885967147 -999416.61759202206
 28507.250786111304 -241.53315505831273 -999593.55655904091
 24362.295616882937 -790.66688381232166 -999702.88255969074
 21433.192200902369 -1234.3041926660276 -999769.52082229382
 19399.991932488952 -1590.1505656842542 -999810.53791915881
 18001.608735960373 -1878.9463822272025 -999836.19240524084
 17046.215295234273 -2117.7720423062783 -999852.45990880323
 16399.364682936659 -2319.2244531321626 -999862.83161038242
 15969.067766768309 -2492.1510895721003 -999869.38049807656
 15693.102602556883 -2642.5749788870817 -999873.36364571005
 15529.444392449457 -2774.4669147390523 -999875.56160264311
 15449.393616560597 -2890.3305449425584 -999876.47348371055
 15432.764023316447 -2991.6324419541006 -999876.43233048206
 15464.526514908115 -3079.1153138081636 -999875.67600604915
 15532.471504570973 -3153.0185103727431 -999874.3925129961
 15625.53943531408 -3213.2247653193267 -999872.75075579667
 15732.589668123461 -3259.3419887756681 -999870.92282560875
 15841.397859106803 -3290.7293605843256 -999869.10203993449
 15937.726448538209 -3306.4694071279755 -999867.5192922866
 16004.275557396846 -3305.2892738209366 -999866.46019691008
 16019.317214689938 -3285.4258017613884 -999866.28478675894
 15954.720424766867 -3244.4284576598657 -999867.45150552364
 15772.998611231715 -3178.8815288672981 -999870.54523424944
 15422.844985249845 -3084.0211442724499 -999876.30468280555
 14832.486394451869 -2953.207614464844 -999885.63141598564
 13900.064734409752 -2777.2246269986376 -999899.53256502235
 12480.482476583975 -2543.4538188003958 -999918.88090975839
 10369.374352720153 -2235.3098797900093 -999943.73814993945
 7289.3037540177702 -1833.3814651673813 -999971.75198261719
 2897.3968640523813 -1322.6392159968075 -999994.92784559506
 -3120.8373554195641 -716.23616011627178 -999994.87367684231
 -10647.675324413858 -109.4569664421258 -999943.30590756913
 -17628.985165845977 276.39842893130719 -999844.55916203838
 46984.969112609717 -447.42561124917319 -998895.49627967062
 40618.306596285373 -657.8421395128114 -999174.51949745463
 33626.077570628389 -973.6898790432648 -999434.00924484921
 28042.873566590963 -1300.176978302829 -999605.87572400412
 23974.493921697089 -1592.0495911440219 -999711.30283662293
 21113.898335372876 -1839.972037345741 -999775.38367374567
 19135.008484162587 -2049.1676472991485 -999814.80903328513
 17777.960176433386 -2227.9199951329933 -999839.47736847273
 16853.972793875299 -2383.4857779715148 -999855.12080331368
 16231.527172211872 -2521.2321987130531 -999865.08135540865
 15820.957852115833 -2644.8156653622359 -999871.34284503711
 15561.77316466157 -2756.5768099604061 -999875.10845118167
 15413.19329179837 -2857.9084919157171 -999877.12536671292
 15347.402013257439 -2949.5468060672542 -999877.87125482596
 15344.817802093901 -3031.7914634705671 -999877.6649206354
 15390.816328588882 -3104.6663299165671 -999876.73431264493
 15473.439981822528 -3168.0325251439494 -999875.26033253199
 15581.784094841107 -3221.659074758832 -999873.40644565003
 15704.800167927913 -3265.2586466651437 -999871.34039218072
 15830.342449418711 -3298.4900872721582 -999869.25156296219
 15944.272286959378 -3320.9336147801255 -999867.36699482566
 16029.461471159468 -3332.0385895272029 -999865.96795959724
 16064.470350020285 -3331.0475072678278 -999865.40940012375
 16021.641272098725 -3316.8923812655812 -999866.14365917968
 15864.217928123553 -3288.0612622852473 -999868.74900792085
 15541.988339684887 -3242.422557522581 -999873.95870399987
 14984.759434568319 -3176.9957088330534 -999882.67495889438
 14092.864856041379 -3087.6586611704583 -999895.92334609572
 12723.995217766162 -2968.8390573716324 -999914.63932695263
 10676.630286387533 -2813.4243527776694 -999939.04524682858
 7674.1233378500438 -2613.683875342796 -999967.13770383224
 3366.6094799802995 -2365.2295879943431 -999991.53577898128
 -2585.9750837120364 -2077.6277044422886 -999994.49808285851
 -10113.548923556824 -1792.8328134139274 -999947.24954803218
 -17169.463988693784 -1594.6206356310361 -999851.32229315455
 46757.388866011352 -2063.0134045098066 -998904.14483178791
 40380.356199732843 -2127.1879324501247 -999182.11648561957
 33396.302780624115 -2191.2816955269436 -999439.7857025282