# OOMMF OVF 2.0
#
# Segment count: 1
#
# Begin: Segment
# Begin: Header
#
# Title: Oxs_TimeDriver::Magnetization
# Desc: Oxs vector field output
# Desc:  MIF source file: /mnt/gpfs/work/plgrid/groups/plggspinsym/MF/switching-obrazki/p-ap/Anisotropy.mif
# Desc:  Iteration: 31300, State id: 219250
# Desc:  Stage: 0, Stage iteration: 31300
# Desc:  Stage simulation time: 4.6087e-09 s
# Desc:  Total simulation time: 4.6087e-09 s
# meshunit: m
# meshtype: rectangular
# xbase: 1.0000000000000001e-09
# ybase: 1.0000000000000001e-09
# zbase: 3.4999999999999998e-10
# xnodes: 35
# ynodes: 35
# znodes: 5
# xstepsize: 2.0000000000000001e-09
# ystepsize: 2.0000000000000001e-09
# zstepsize: 6.9999999999999996e-10
# xmin: 0
# ymin: 0
# zmin: 0
# xmax: 7.0000000000000005e-08
# ymax: 7.0000000000000005e-08
# zmax: 3.4999999999999999e-09
# valuedim: 3
# valuelabels: Magnetization_x Magnetization_y Magnetization_z
# valueunits: A/m A/m A/m
#
# End: Header
#
# Begin: Data Text
 -0 0 -0
 0 0 -0
 -0 -0 0
 -0 0 0
 0 0 0
 -0 0 -0
 0 0 0
 0 -0 0
 -0 0 0
 0 0 0
 0 0 0
 -0 -0 0
 0 0 0
 16206.431549490888 25843.214359518497 -999534.63164014462
 14020.282059475157 24936.171796593488 -999590.72576085036
 12169.803209165499 23993.567389328055 -999638.03679821221
 10803.491505396361 23293.080302295584 -999670.30414098199
 9608.5972359467578 22900.072754977926 -999691.58320302656
 8261.4927839585598 22843.888968958112 -999704.90869743878
 6459.7626589380325 23150.793179496683 -999711.11439332808
 4007.6540581148292 23798.358284309044 -999708.74601151806
 1428.5218200595752 24525.241886529388 -999698.19037338311
 0 0 0
 -0 0 -0
 -0 0 -0
 -0 0 0
 0 -0 0
 -0 0 0
 -0 -0 0
 0 0 0
 0 -0 0
 0 -0 -0
 0 -0 0
 -0 -0 0
 0 0 -0
 -0 -0 -0
 -0 -0 -0
 -0 -0 -0
 -0 0 -0
 0 0 -0
 0 0 -0
 -0 -0 0
 0 0 0
 0 0 -0
 0 0 0
 20439.721444030252 24755.830836668079 -999484.55046932888
 18475.501674308467 22770.915768403287 -999569.97815708292
 16955.628094082858 20286.542047649313 -999650.42034087295
 15352.213045970822 19483.077664689423 -999692.31228378613
 13400.190881275868 18129.41903461374 -999745.84722809063
 11861.856944294419 17066.563273061296 -999783.99105400755
 10712.379204590918 16351.476769316507 -999808.9188136101
 9699.3430826882395 15976.789571694262 -999825.31721233518
 8565.936938617273 15966.216606714885 -999835.83885137422
 7088.5099843693342 16383.062253540043 -999840.66145431297
 5160.706829349152 17308.775872485374 -999836.8733862628
 3128.2256168519234 18645.217421532067 -999821.26906352292
 1990.4658646936364 19136.242307450273 -999814.90400773287
 76.950127525603349 20753.328857656346 -999784.62351648707
 -2535.6897497324467 22071.586600611117 -999753.17721046787
 -0 0 -0
 0 -0 0
 -0 0 -0
 0 -0 -0
 -0 0 0
 -0 0 0
 -0 0 -0
 -0 0 0
 -0 0 -0
 -0 0 0
 0 -0 -0
 -0 0 -0
 -0 0 0
 -0 0 0
 -0 -0 0
 0 0 -0
 0 -0 -0
 -0 -0 0
 24586.841460097021 23225.793601388414 -999427.86119789653
 21973.516302660835 20861.673929568002 -999540.87217189511
 19348.161277833155 19113.793840105169 -999630.08735241892
 16980.251018632243 16573.37500666752 -999718.45752503374
 15242.26346552048 14106.8738507861 -999784.31149653741
 13749.667838221689 12289.871553425259 -999829.93838529289
 12372.45926382136 10830.548300308234 -999864.80159833597
 11296.536409506729 9785.7171209727494 -999888.30776521075
 10476.261930414119 9104.4766171133997 -999903.67358135746
 9750.382367003418 8756.9087155815942 -999914.11960900121
 8947.5661675293359 8759.2256096149122 -999921.60544034548
 7928.7936114340719 9167.2253706283645 -999926.54540764715
 6641.0761553520788 10047.065812825858 -999927.47365799057
 5198.9636964230031 11364.42064432422 -999921.90731071704
 3730.7571208858212 12821.682296178351 -999910.83898235706
 1637.4786560807534 14724.64400896651 -999890.24573823088
 -1190.6169049215939 16819.754792110951 -999857.82903376769
 -4017.1039806045992 17990.18506628945 -999830.09362435655
 -7115.5046850971958 19491.367520786946 -999784.70491663658
 -0 0 -0
 -0 -0 -0
 0 0 -0
 -0 0 0
 -0 0 -0
 0 0 -0
 0 -0 -0
 -0 -0 -0
 -0 -0 0
 0 0 0
 0 0 0
 0 0 -0
 -0 0 0
 0 0 0
 -0 -0 -0
 26359.840159312167 19726.112975675256 -999457.87269581645
 23171.360252156479 18183.405670540313 -999566.1317903311
 19785.993385896516 15289.105710733918 -999687.32997487742
 17044.527902183421 12599.872795532474 -999775.33840064716
 14932.130296516054 10110.445268595302 -999837.39196995378
 13407.307022692412 7958.6514113053408 -999878.44460519927
 12252.354473680105 6255.0509493435029 -999905.37259656365
 11346.694847302479 4943.7032706743421 -999923.4032234737
 10679.132157232052 3995.426388523812 -999934.99423929653
 10187.436968789327 3365.3658294674083 -999942.44356404874
 9764.0213064551608 3030.4371133331201 -999947.73880379845
 9295.6175443346692 2999.7022702913837 -999952.29550251993
 8689.0737012643986 3306.1936622386406 -999956.78360701271
 7890.54954768067 3984.0855298589595 -999960.93238202401
 6883.266399405803 5026.9710406782215 -999963.67444314261
 5596.1134717342502 6383.1077052173987 -999963.96907590388
 3768.7505697269644 8143.2112677388232 -999959.74150432285
 1263.989236974634 10289.77626371627 -999946.25997383054
 -1877.7280669982867 12584.97870331095 -999919.04294714949
 -5682.1848313258124 15057.850697788283 -999870.47856605204
 -8853.6150963312411 16283.642111449604 -999828.21349435451
 -0 -0 -0
 0 -0 0
 -0 0 -0
 -0 -0 -0
 0 -0 -0
 0 -0 -0
 0 0 -0
 0 -0 -0
 -0 0 -0
 0 0 -0
 -0 0 0
 -0 0 0
 -0 0 -0
 27400.36227253043 17788.322700679793 -999466.25541977689
 24193.689582880143 15617.678521464331 -999585.2907591064
 20347.925445748802 12621.525372261001 -999713.28841189831
 17120.161460828185 9686.1371291018932 -999806.52069241437
 14710.933618309786 7149.003276582429 -999866.23114506144
 12982.937425830771 4985.1469498734796 -999903.29114654136
 11789.777230078847 3177.0821293776457 -999925.450872218
 10974.938246201493 1718.7921253021134 -999938.29633839021
 10429.015101988547 579.16592584866066 -999945.44861748989
 10087.923222479552 -270.92014724326026 -999949.07890718663
 9883.2871110139004 -859.35165908728504 -999950.78986448469
 9733.7658672995694 -1199.8259642454148 -999951.90595332929
 9556.8825191923752 -1287.5810802762669 -999953.50298475183
 9279.6199647895482 -1104.6197778810715 -999956.33328083658
 8841.6770804951339 -630.92350155152826 -999960.71256921848
 8183.2870182311726 144.64973690790995 -999966.50588408753
 7209.1384076856848 1235.0417876792878 -999973.25113985001
 5763.8730322191805 2697.5624661031811 -999979.75025717891
 3703.5318213531136 4578.8510074404039 -999982.65883739199
 912.23709108717526 6894.4802675577366 -999975.81669024855
 -2663.0897850738938 9677.3221152502792 -999949.62742603908
 -6545.1567641648189 12503.819997847484 -999900.40274439019
 -9387.0502908973831 14256.132450451991 -999854.31237475353
 0 -0 -0
 -0 0 -0
 0 0 0
 0 0 -0
 0 -0 0
 -0 0 0
 -0 0 0
 0 -0 0
 -0 -0 -0
 -0 -0 -0
 0 0 0
 28371.300941028989 16969.249232925267 -999453.407550039
 25053.00674632932 14363.807166013703 -999582.92697337817
 20980.035440437972 11001.67919199977 -999719.36120487074
 17386.744251305743 7898.6888226392948 -999817.63929189765
 14621.917165341431 5257.4724324337403 -999879.2719733878
 12638.596583667597 3058.9763405653307 -999915.45069577917
 11281.520911902853 1224.5321833482674 -999935.61183050508
 10404.143773741029 -301.54697503759741 -999945.82996368222
 9880.7469510971205 -1552.5947379978318 -999949.97889357852
 9614.9727629086301 -2555.287804284872 -999950.51017688157
 9533.9189334865259 -3330.5542589690995 -999949.00459878345
 9570.3242145785807 -3894.0855768097945 -999946.6210713191
 9655.761295410779 -4252.6306239018522 -999944.33915422659
 9722.8633692779422 -4402.6967013524472 -999943.03947257809
 9708.2487171212433 -4333.0008624968486 -999943.48590826476
 9551.2824463209545 -4028.4700451749732 -999946.27077294781
 9185.7769679631019 -3471.5060740873146 -999951.78391114064
 8525.8451203280529 -2634.6587299202806 -999960.18347650289
 7458.8514784955605 -1468.1662823050638 -999971.10459372238
 5860.2322271537205 91.545270176195032 -999982.82450135495
 3603.6157909327126 2119.575393909573 -999991.26063850219
 597.95953264259413 4692.8925804736318 -999988.80953919946
 -3062.7535000781836 7743.2242277783507 -999965.33040878782
 -6890.6121998039316 10853.096675470932 -999917.36146346841
 -9680.013672522824 12834.25947811848 -999870.78121072613
 0 -0 0
 0 0 0
 0 -0 -0
 0 -0 0
 0 -0 -0
 -0 -0 0
 0 -0 -0
 0 -0 0
 0 0 -0
 29711.250133060792 16670.282783350249 -999419.50315543357
 26117.860413082566 13888.670000565955 -999562.38535323949
 21754.38860923022 10307.778042582973 -999710.20615379524
 17843.320281833989 7008.7991942056606 -999816.2294417785
 14740.561114762237 4248.9160681141275 -999882.32436135632
 12450.710087379479 1982.9594200080628 -999920.52068664855
 10855.950042830906 111.89326603620123 -999941.06617768458
 9815.4199995237959 -1451.5597943496873 -999950.77404060063
 9204.4537156069473 -2765.2846232980664 -999953.81454982678
 8919.6320419389176 -3863.8938488654039 -999952.7541281943
 8877.0829228751318 -4768.9237391946463 -999949.22609358013
 9006.8893277079624 -5493.9666864609799 -999944.34458858089
 9245.2937127047335 -6046.8770080414506 -999938.9780494686
 9530.6515401254801 -6429.6281121361317 -999933.91109790851
 9803.1125257418971 -6638.3099317558363 -999929.91345696722
 10004.885206462255 -6664.0742184901765 -999927.74358291319
 10078.5347831419 -6494.0215155896449 -999928.12282742606
 9962.2901306023796 -6110.133346599413 -999931.70719096647
 9583.5784224546751 -5484.8635184826144 -999939.03378996276
 8854.9152845724639 -4575.5161049176368 -999950.32633010147
 7675.313721516497 -3323.1206740914199 -999965.0226024217
 5933.6961101454399 -1651.912065041905 -999981.03103859012
 3524.4094474981384 521.41548976432455 -999993.65331182641
 394.60503110321014 3237.5302678231724 -999994.68132817291
 -3369.5746310982991 6400.4473445446311 -999973.83977811888
 -7334.8166596827978 9554.2000038051083 -999927.4562321289
 -10334.047881248205 11499.918931352711 -999880.47251607047
 0 -0 0
 0 -0 0
 0 0 -0
 0 0 -0
 0 0 -0
 0 -0 0
 -0 0 -0
 31912.311986842371 16354.044233948689 -999356.86798102723
 27776.909248943175 13693.48982031079 -999520.35079287749
 22932.838815566571 10108.547264175919 -999685.90175918117
 18603.009433206658 6731.8966050151457 -999804.28565201047
 15123.947350145987 3881.4826313403505 -999878.09272387426
 12492.352556444011 1547.9580236308518 -999920.7693380327
 10601.749735011017 -367.81520891770492 -999943.73222423287
 9323.8025447504242 -1964.8953505545983 -999954.60191569082
 8538.2795582119525 -3317.9563732566435 -999958.04359367548
 8142.589504025721 -4475.2058283280967 -999956.83445284911
 8050.7177672931221 -5464.8115422878118 -999952.65976857056
 8189.4205004440137 -6302.2629164698355 -999946.60601154051
 8493.8955798714178 -6995.3044074401569 -999939.45789438963
 8903.8462550505574 -7546.6123930056892 -999931.88276164886
 9361.3570780441478 -7954.849625527354 -999924.53983342787
 9810.4282063665232 -8215.1417135474221 -999918.13012117834
 10196.792958787133 -8319.42233585752 -999913.40256311861
 10466.772032793413 -8256.2875222426264 -999911.13625139894
 10564.646323109864 -8009.6843718732589 -999912.11274007987
 10429.021135234216 -7556.1540100795692 -999917.06658839295
 9989.387219740418 -6861.5269663159597 -999926.56309884298
 9163.7035622161166 -5878.6692202454269 -999940.73213627154
 7856.7776519513445 -4546.5506210719632 -999958.7991124324
 5962.41390843518 -2794.7502201224343 -999978.31926076859
 3375.1315873846497 -562.34655728695543 -999994.14610942488
 20.580902841042388 2161.3731497576368 -999997.66401853855
 -4055.5975019379152 5239.9366489897475 -999978.04735544906
 -8451.4950536816996 8175.3301572270993 -999930.86571431439
 -11993.360109806999 9760.7951050929496 -999880.43594831531
 0 0 0
 0 0 0
 -0 0 0
 0 -0 0
 -0 0 -0
 35425.314961434742 15155.570666701775 -999257.40214303625
 30490.42057560337 13252.093421483769 -999447.20534557058
 24855.283256278981 10013.741230109254 -999640.90546597133
 19887.830110746156 6749.6520871651064 -999779.43388038769
 15901.196629638091 3908.432871668922 -999865.92906160816
 12850.437683245276 1549.409542057407 -999916.22928194341
 10603.518585458954 -394.82803289594739 -999943.70316754957
 9023.9665580027722 -2016.1747059072961 -999957.25061980297
 7991.6296613613285 -3393.7855238947327 -999962.307327218
 7405.4355323962509 -4584.6134948696235 -999962.06970248534
 7180.7476635759722 -5624.7321420411645 -999958.39876032958
 7244.9210669864224 -6534.4226164964584 -999952.40508726332
 7533.1171188228545 -7323.4694865171805 -999944.80794749549
 7985.1098602900947 -7995.1068886204566 -999936.15610515792
 8543.2288802925468 -8548.4835466831246 -999926.9656676685
 9151.5523763708188 -8979.9626035570946 -999917.80130205757
 9755.9539715668288 -9283.7363180375651 -999909.31268894649
 10304.244707667262 -9451.9967439728116 -999902.2363704145
 10745.676777665787 -9474.5972286318593 -999897.37595312495
 11029.448564358647 -9338.0049616746019 -999895.57101114397
 11102.221867784332 -9023.5404749651261 -999897.65295598877
 10904.904633859642 -8505.2788183588291 -999904.36707074556
 10368.79124736966 -7748.2350351014047 -999916.22300166194
 9410.9874076976575 -6707.4392437748002 -999933.21955758787
 7929.833034579744 -5329.7388583305947 -999954.35477412969
 5802.386628041475 -3561.7475166826607 -999976.82286343339
 2889.5710756531621 -1369.2194359908158 -999994.88779550011
 -931.68050181481567 1216.622391796692 -999998.82590000983
 -5658.112543546591 3991.6434517168354 -999976.02598512266
 -10851.680863640748 6352.9067794879393 -999920.93767351657
 -15038.021596691191 7037.4347273618596 -999862.15670907148
 0 0 0
 -0 -0 -0
 0 -0 -0
 0 0 -0
 33259.612670743882 12169.742321109965 -999372.65098502161
 27679.115015890908 9741.0248091573339 -999569.396804246
 21948.708495199349 6817.6852151334651 -999735.85179471306
 17262.851485229858 4113.5842053409542 -999842.52379241423
 13655.501201453213 1802.3597495694894 -999905.13489344076
 10960.416765429893 -130.04222691175619 -999939.92437213333
 9008.5327417797143 -1751.6718378097239 -999957.8881051006
 7662.6266449941922 -3134.4638926380953 -999965.72905725404
 6815.6755721314184 -4336.6958276474634 -999967.36928551539
 6382.6676386813542 -5399.1866912904998 -999965.05455785128
 6292.8444175027998 -6347.1092005061682 -999960.05635921995
 6483.6530668106034 -7193.7142660642357 -999953.10525942536
 6896.6307029697937 -7944.0954423946923 -999944.66238514881
 7475.0366818162802 -8598.1698353657393 -999935.09554474952
 8162.9243763912409 -9152.7033397493633 -999924.79451566725
 8905.2581674326739 -9602.5201075923906 -999914.24031491554
 9648.5862830812766 -9941.1109422842655 -999904.03494333953
 10341.662744554516 -10160.795826656702 -999894.89859677095
 10935.511381787644 -10252.458262484031 -999887.64453332184
 11382.574512789199 -10204.833495156392 -999883.14235754416
 11634.788686057031 -10003.384429762827 -999882.27506651066
 11640.471656619047 -9628.9455287246547 -999885.88490268053
 11339.854565486608 -9056.4058621084696 -999894.68906045042
 10658.986305131699 -8253.8261065718616 -999909.12605373771
 9501.9740853746971 -7182.821412673261 -999929.05726608168
 7742.2586696414273 -5801.7673407266284 -999953.19736796501
 5216.2475610485872 -4074.7401721635301 -999978.09338700585
 1731.5865752997565 -1993.1597487953882 -999996.51445499936
 -2869.0998814614518 375.27221799102369 -999995.81370955356
 -8443.5179709112217 2780.8594232719638 -999960.48613189859
 -13546.850655601043 4585.5039738757378 -999897.72276499367
 -0 0 -0
 -0 -0 -0
 0 0 -0
 37503.639872012136 11050.644663703079 -999235.38780853187
 31784.825315842481 9480.0418020121269 -999449.77547002002
 25122.517366273376 6894.944393849195 -999660.60183593666
 19464.753900618078 4375.9322879217298 -999800.96747912781
 15088.023753026497 2168.1941373626023 -999883.81848763325
 11801.70883317317 292.41628430862954 -999930.31465264305
 9380.8489273917676 -1296.6411672163113 -999955.15819214855
 7647.7312653701892 -2658.7831329897531 -999967.22100214101
 6473.3341317539416 -3848.2087777233351 -999971.64321515721
 5763.7863945419958 -4906.5559928020939 -999971.35182698502
 5447.0922223282632 -5862.0542416710123 -999967.98224062636
 5463.1205427030127 -6731.353191449165 -999962.42089297925
 5756.9066314014162 -7522.2497758435293 -999955.13588577928
 6274.7163087473928 -8236.3759490042466 -999946.39358641184
 6962.2922353940303 -8871.3910452076288 -999936.41043205955
 7764.6655154004247 -9422.5630425161344 -999925.45985945559
 8626.9668767774201 -9883.7788293572357 -999913.93947607302
 9495.6413489653369 -10248.101092342167 -999902.39984679176
 10319.537551773987 -10507.955942662151 -999891.5391214313
 11050.399911370527 -10655.004194142866 -999882.17283208994
 11642.441879615286 -10679.708063347811 -999875.19090272521
 12050.7418882031 -10570.634640753588 -999871.51239708578
 12228.251681783768 -10313.561275385642 -999872.04197068419
 12121.12139690408 -9890.4998279419196 -999877.62072627409
 11661.989860065369 -9278.8007073643203 -999888.94475833513
 10760.916673201649 -8450.6717238240053 -999906.39002847078
 9294.1440676355651 -7373.7289638002867 -999929.62102700956
 7092.8418571724051 -6013.8266513079961 -999956.76180692809
 3940.812255962679 -4342.9658055920645 -999982.80417553894
 -387.91772193399186 -2359.0483844935384 -999997.14220119687
 -5950.7497869444205 -140.63747062759157 -999982.28424211347
 -12045.774387047744 1949.0361325470283 -999925.54751719907
 -16413.914588240816 2626.3338488655786 -999861.83334418957
 -0 -0 0
 0 0 -0
 35594.430401881029 8660.3885027800352 -999328.79183747456
 29333.817093809062 6905.2713860530621 -999545.81906073319
 22725.21618765363 4654.5771610587963 -999730.9135265731
 17362.990733976305 2571.2347520103704 -999845.94578596042
 13291.79726869381 777.01261793525759 -999911.35825970094
 10265.160582588564 -751.97275837661812 -999947.02910463454
 8050.0311196577086 -2067.1759660644084 -999965.46129478805
 6475.7018258329717 -3218.5813772624265 -999973.85266804916
 5424.7292378178163 -4246.7730288219691 -999976.26833417302
 4815.2206105021078 -5181.2360845906414 -999974.98390865186
 4585.6676710348647 -6041.1007033888582 -999971.2379635236
 4684.1349923121552 -6836.8980442458424 -999965.65726254135
 5061.3844743339459 -7572.6113932343751 -999958.51811157155
 5667.1794481112083 -8247.6007751363886 -999949.92882571719
 6448.969786784086 -8858.1958845620866 -999939.96977536601
 7352.2442215648516 -9398.8811364770208 -999928.8002344413
 8321.845259933003 -9863.102149679944 -999916.72958674654
 9303.6389781766102 -10243.745092504383 -999904.24941003404
 10245.979658554415 -10533.35580761631 -999892.02832919266
 11100.549642467118 -10724.129080321141 -999880.87833156588
 11822.226497920121 -10807.696055655639 -999871.70610363851
 12367.729066657235 -10774.714774839906 -999865.46334957203
 12692.774370652651 -10614.284373239065 -999863.10585300636
 12747.453478548965 -10313.189164041994 -999865.56124264956
 12469.433922566206 -9855.001162095492 -999873.6881075257
 11774.626766710722 -9219.0950751719247 -999888.17697305523
 10545.303891046908 -8379.7547972333414 -999909.28402299748
 8617.2436948112263 -7305.9070958737602 -999936.18137989717
 5772.6880881872594 -5963.3873387860858 -999965.55644866277
 1761.7831373272622 -4326.7071112078847 -999989.08780333726
 -3578.9065272327939 -2425.6714382184991 -999990.65372939513
 -9919.4480859581163 -498.0088696363178 -999950.67705204117
 -15279.982574910557 755.33203185703621 -999882.96895488328
 0 0 0
 -0 -0 0
 33372.281510373206 6782.2671042528009 -999419.97762688296
 27038.718735083687 4939.3862570028168 -999622.18370370776
 20683.538612879984 2983.470903005822 -999781.62122126471
 15627.282430255244 1267.6820567014468 -999877.0829587247
 11815.002459823019 -191.1462089778484 -999930.1821527346
 8988.4899334673646 -1440.9999987856036 -999958.56442540616
 6923.5022704814055 -2532.4724224770534 -999972.82548064296
 5461.5996615759304 -3506.6508875217405 -999978.93694251857
 4497.1902370838452 -4393.9759752283362 -999980.23393220175
 3958.7180279689319 -5215.3197304318292 -999978.56426609703
 3793.0963816062285 -5983.5285933724053 -999974.90458781633
 3954.7495981601851 -6705.0527504034126 -999969.70065258991
 4398.8135019512274 -7381.4967889984655 -999963.08129096904
 5077.6561024767516 -8010.992271930988 -999955.01969404798
 5939.9087990750877 -8589.3192063964252 -999945.46905270254
 6931.1947036416568 -9110.7666069007137 -999934.47408908501
 7995.8358736393884 -9568.7429207174901 -999922.24986125738
 9078.8620903427491 -9956.1825604283895 -999909.22022550029
 10127.788736685699 -10265.777965354224 -999896.01544264145
 11093.715431023928 -10490.070321837016 -999883.43715784093
 11931.436761943442 -10621.398776446073 -999872.40521219873
 12598.290471507393 -10651.70820993722 -999863.90283348365
 13051.509703875059 -10572.184746869163 -999858.93355219241
 13243.775821264722 -10372.687357744733 -999858.49486763601
 13116.630160772225 -10040.911499914509 -999863.55774649396
 12591.376300181277 -9561.2238518554332 -999875.01230969967
 11557.422990121786 -8913.1128528656191 -999893.48552388279
 9859.2321588611194 -8069.3793336701056 -999918.8370354902
 7286.9925278615046 -6994.905540470515 -999948.98421688413
 3587.7822001372706 -5649.4304878435951 -999977.60562626971
 -1450.2666762588181 -4005.7346507412922 -999990.92536706314
 -7664.0768693317905 -2118.5303245782698 -999968.38637779199
 -13319.777858077885 -381.19346338729713 -999911.21516330389
 -0 0 -0
 39347.571112484897 6935.6909762794539 -999201.51362887246
 32834.293977471185 5388.22567042624 -999446.28478129092
 25383.446723520661 3422.6874839284856 -999671.92910615506
 19078.178868901003 1731.2491915741541 -999816.49609680031
 14234.408475534165 331.35997356667372 -999898.63077009958
 10613.274273154973 -845.74056614260269 -999943.31995973538
 7931.6362193792293 -1861.4300533521523 -999966.81156178378
 5971.8110011015906 -2761.6899814088038 -999978.35503665451
 4586.4788640706711 -3579.3127775411949 -999983.07622262789
 3680.2916429874163 -4336.8768854473556 -999983.82334530947
 3190.1781143841426 -5049.1014934124096 -999982.16450980154
 3069.7219046194787 -5724.6217338048373 -999978.90253416495
 3278.3057571161112 -6367.3776835628423 -999974.3542775471
 3774.4401874528398 -6977.7499255381799 -999968.53180850041
 4512.4887550215562 -7553.4866768625534 -999961.29039291223
 5441.934359426682 -8090.4523074906856 -999952.46383610053
 6508.3944087565787 -8583.2075058350965 -999941.98299257923
 7655.5984476501726 -9025.4539552505721 -999929.96404413739
 8827.6682142078189 -9410.363317216621 -999916.75520322088
 9971.1211985501304 -9730.8221206808994 -999902.93921105121
 11036.186303353241 -9979.5955844529999 -999889.29900456907
 11977.097951408045 -10149.413088063271 -999876.76167547307
 12751.138099394919 -10232.943859986799 -999866.33873589744
 13316.180538024328 -10222.628870754079 -999859.07866801403
 13626.487596709849 -10110.299746025192 -999856.03997516655
 13626.425458489195 -9886.5098426073146 -999858.27868371236
 13241.78635740515 -9539.4668674598306 -999866.81796424754
 12368.628498709704 -9053.4630584037968 -999882.51901696471
 10860.58683086067 -8406.7390367255903 -999905.68274835695
 8518.7657228690659 -7569.0001926875193 -999935.06832525984
 5097.4794530275303 -6499.7636379673686 -999965.88380598102
 365.1185155782386 -5152.5791249991216 -999986.65871942043
 -5668.0270932390413 -3510.2421203195458 -999977.77558760135
 -12105.614024688808 -1784.6004399259793 -999925.13185255788
 -16538.356208250538 -1048.7713955185532 -999862.68199812761
 38281.00239673302 4521.1857803835737 -999256.78568356019
 31368.638914961277 3428.0678140348837 -999502.00442204485
 23904.240066574621 2005.5785414688723 -999712.24107817851
 17786.03847529813 726.66877164192158 -999841.55184101628
 13126.289302220686 -352.54683899179145 -999913.78440337593
 9647.0632377025049 -1273.2330748198942 -999952.655403457
 7066.4709531237704 -2080.4053392091228 -999972.86808287608
 5176.6062760404002 -2808.1581800017379 -999982.65834718302
 3840.1674018193689 -3480.2265791347781 -999986.57047846599
 2970.2428511816593 -4112.5017629296462 -999987.1324105399
 2510.4809921180658 -4715.121456404383 -999985.73245563847
 2419.6663436636081 -5293.9312424906593 -999983.05960990419
 2661.0277710059627 -5851.4989578179657 -999979.33923214045
 3195.7221669169198 -6387.8396765558782 -999974.49110669736
 3979.6939222470128 -6900.9631890479241 -999968.26886824204
 4963.1187618827298 -7387.2972610449942 -999960.39686146216
 6091.5955460326477 -7842.0342196977244 -999950.69626607117
 7308.3281162108042 -8259.4224663982877 -999939.18329099775
 8556.5833909017292 -8633.0329253439231 -999926.12508284068
 9781.8770857643485 -8956.0047376634047 -999912.04856218118
 10933.440349576967 -9221.2770553017326 -999897.70873404422
 11964.675705893471 -9421.7822952856332 -999884.03155247599
 12832.352344080988 -9550.5755564696847 -999872.05043438321
 13494.342678584939 -9600.8435687919919 -999862.85385468765
 13905.642196037968 -9565.7378107399272 -999857.5547423003
 14012.3876439004 -9437.9498717887127 -999857.27886270604
 13743.546219171525 -9208.9601835698359 -999863.14563027024
 13000.163252170236 -8867.9061564375734 -999876.17033101525
 11642.861754966081 -8400.1640937267912 -999896.93519549968
 9480.8960874136301 -7786.1866977805748 -999924.74112109409
 6273.273333179056 -7002.6551702655006 -999955.80345445941
 1771.5883349820376 -6032.92532892908 -999980.23244799546
 -4118.3681591550621 -4908.7874364460968 -999979.47121408931
 -10876.228256359753 -3830.2159939446806 -999933.51634213922
 -16273.843906058461 -3268.8478024914934 -999862.22882883495
 37190.572961970822 2308.1803849686539 -999305.52564572101
 30144.101836385555 1674.4774364816092 -999544.16073017614
 22762.784358547065 784.73711550409189 -999740.5862702115
 16800.580379817337 -83.649822959432086 -999858.85679010139
 12275.05939576176 -855.56023690117865 -999924.29260095069
 8892.2842187590322 -1536.8852935993882 -999959.28180349781
 6376.2436929275809 -2149.917188310244 -999977.36042995099
 4528.1577865747686 -2714.608220794948 -999986.06324751722
 3218.8126329341608 -3245.5451198423561 -999989.55278648227
 2367.7511239803898 -3752.7138590403365 -999990.15539819538
 1923.6712406089537 -4242.6682852865169 -999989.14956852363
 1849.2593572880178 -4719.3961985698461 -999987.15368716151
 2110.6881002731125 -5184.8537535159585 -999984.3310208905
 2671.1982769665497 -5639.281541411432 -999980.53141221788
 3488.0560838376355 -6081.3934247481675 -999975.42475741333
 4512.0784975991473 -6508.5168522397844 -999968.63968627329
 5688.9430788326745 -6916.7255706360847 -999959.89661287237
 6961.4783500788371 -7301.0034685702103 -999949.11528913991
 8272.2529732903949 -7655.4484769450746 -999936.4799522832
 9565.8711512665741 -7973.526274367905 -999922.45548735908
 10790.56397669897 -8248.3541902330089 -999907.75993699394
 11898.756074935362 -8472.9968039143623 -999893.30827295268
 12846.399737643982 -8640.7270876722796 -999880.14674218697
 13590.858651828508 -8745.2118593943942 -999869.39638666844
 14087.122842929444 -8780.5589956136973 -999862.21788491076
 14282.045831132662 -8741.1795291420331 -999859.79764530831
 14106.280515708409 -8621.4198456547601 -999863.33264594583
 13463.676100316419 -8414.996286554202 -999873.95068746689
 12218.526629582482 -8114.4397434869452 -999892.42595123767
 10183.032012888651 -7711.2983026616657 -999918.41754090704
 7113.0859188325121 -7199.1549210354542 -999948.78677716991
 2736.4397556538515 -6584.2781025042495 -999974.57926655945
 -3116.8073786990726 -5911.5530494761779 -999977.66927682306
 -10068.003022942999 -5301.8702782527571 -999935.26064774953
 -15839.302081806829 -4931.3944309326753 -999862.38946093374
 36408.271701575512 609.21866822530035 -999336.81339392194
 29322.528508589152 270.18292348500637 -999569.96569677442
 21993.493367205243 -225.06085103132011 -999758.08853798232
 16118.394739433374 -742.32750742154144 -999869.81467633857
 11668.018128989714 -1231.8179078001017 -999931.1676198435
 8337.2728730817053 -1686.6190275289364 -999963.82194422209
 5853.2881070305448 -2112.7642162899083 -999980.63743539667
 4023.1462407244758 -2517.7572581255422 -999988.7375329358
 2722.9037726386373 -2907.7794808180906 -999992.06527528795
 1876.3349817590247 -3287.5541379372239 -999992.83565174951
 1435.4995378724443 -3660.6777729530445 -999992.26935977826
 1365.7872251890503 -4029.8315561710269 -999990.94750046812
 1635.5152152240535 -4396.8104438689152 -999988.99651341222
 2209.5656858101465 -4762.4231800130374 -999986.218477502
 3046.3490352725084 -5126.3483655041446 -999982.21999693103
 4097.3585583672057 -5487.007187828116 -999976.55192757642
 5308.5024452778553 -5841.5096385076913 -999968.84779823606
 6622.4528692833419 -6185.6970090371651 -999958.93929226254
 7981.2866832299351 -6514.2978388644024 -999946.93008506531
 9328.8594787980837 -6821.1826490332332 -999933.21969424211
 10612.465078405145 -7099.7019862674397 -999918.48158570693
 11783.49647945972 -7343.0667209704634 -999903.60964537493
 12796.871876382911 -7544.7358883970601 -999889.65242698346
 13609.043267600497 -7698.7591330004025 -999877.7540525404
 14174.341531533457 -7800.0358733850317 -999869.11517584231
 14439.370049552985 -7844.4454872112165 -999864.97551797971
 14335.06766494839 -7828.834663377278 -999866.59869347292
 13766.134232423894 -7750.876112871154 -999875.20094648702
 12597.931952896464 -7608.9354144624203 -999891.6922408992
 10642.631972760102 -7402.3328640175923 -999915.96639560803
 7651.5142451139191 -7132.9464156895738 -999945.28620579431
 3336.3118357430358 -6809.7876215790802 -999971.24749458861
 -2506.580212681215 -6457.4867258132272 -999976.00867261982
 -9530.6115406281533 -6123.0787184139463 -999935.8356168007
 -15403.004021223171 -5868.6265722922544 -999864.14411622798
 35994.04009289472 -816.51245668932154 -999351.67102737131