# OOMMF OVF 2.0
#
# Segment count: 1
#
# Begin: Segment
# Begin: Header
#
# Title: Oxs_TimeDriver::Magnetization
# Desc: Oxs vector field output
# Desc:  MIF source file: /mnt/gpfs/work/plgrid/groups/plggspinsym/MF/switching-obrazki/p-ap/Anisotropy.mif
# Desc:  Iteration: 41800, State id: 292750
# Desc:  Stage: 0, Stage iteration: 41800
# Desc:  Stage simulation time: 6.15391e-09 s
# Desc:  Total simulation time: 6.15391e-09 s
# meshunit: m
# meshtype: rectangular
# xbase: 1.0000000000000001e-09
# ybase: 1.0000000000000001e-09
# zbase: 3.4999999999999998e-10
# xnodes: 35
# ynodes: 35
# znodes: 5
# xstepsize: 2.0000000000000001e-09
# ystepsize: 2.0000000000000001e-09
# zstepsize: 6.9999999999999996e-10
# xmin: 0
# ymin: 0
# zmin: 0
# xmax: 7.0000000000000005e-08
# ymax: 7.0000000000000005e-08
# zmax: 3.4999999999999999e-09
# valuedim: 3
# valuelabels: Magnetization_x Magnetization_y Magnetization_z
# valueunits: A/m A/m A/m
#
# End: Header
#
# Begin: Data Text
 -0 0 -0
 0 0 -0
 -0 -0 0
 -0 0 0
 0 0 0
 -0 0 -0
 0 0 0
 0 -0 0
 -0 0 0
 0 0 0
 0 0 0
 -0 -0 0
 0 0 0
 23203.7615134554 34954.303030296724 -999119.503438549
 20735.918817822501 34612.095420476144 -999185.68070273323
 18379.227198583863 34226.550133328157 -999245.08869123471
 16561.265712023673 33985.666585025283 -999285.0939270471
 15035.808059972347 33923.423189658453 -999311.32578144991
 13471.820828680748 34039.65997094367 -999329.68113261927
 11527.667056812372 34331.206060691562 -999344.02544001094
 8923.9664966988294 34759.118061236346 -999355.87581880507
 6043.2949987176935 35126.137918926048 -999364.61465295986
 0 0 0
 -0 0 -0
 -0 0 -0
 -0 0 0
 0 -0 0
 -0 0 0
 -0 -0 0
 0 0 0
 0 -0 0
 0 -0 -0
 0 -0 0
 -0 -0 0
 0 0 -0
 -0 -0 -0
 -0 -0 -0
 -0 -0 -0
 -0 0 -0
 0 0 -0
 0 0 -0
 -0 -0 0
 0 0 0
 0 0 -0
 0 0 0
 28140.832431884282 32936.835369571512 -999061.18852945056
 26062.014001899541 31819.710169356156 -999153.78069189284
 24455.604402222525 30141.569579680901 -999246.42065738479
 22742.850054736478 29586.467989981615 -999303.45925712935
 20402.901193412188 28538.773546333341 -999384.44055696763
 18322.837935434462 27852.408442503394 -999444.10396677197
 16682.208685825848 27511.118191673053 -999482.28713129589
 15279.592585883534 27436.058610919728 -999506.77673455887
 13845.052465896524 27600.399115318862 -999523.15255370224
 12105.631106365834 28035.995986429516 -999533.60955225804
 9858.8004476569404 28830.776345428312 -999535.68740143196
 7328.339174885793 30013.536704889026 -999522.62758749083
 5656.1248975657727 30689.11651926054 -999512.97459233133
 3791.5575843228808 32310.456690267427 -999470.68915479013
 1248.462813653277 33356.306683317554 -999442.74380529253
 -0 0 -0
 0 -0 0
 -0 0 -0
 0 -0 -0
 -0 0 0
 -0 0 0
 -0 0 -0
 -0 0 0
 -0 0 -0
 -0 0 0
 0 -0 -0
 -0 0 -0
 -0 0 0
 -0 0 0
 -0 -0 0
 0 0 -0
 0 -0 -0
 -0 -0 0
 33084.966450143795 30486.928252190588 -998987.45347513666
 30555.572311148371 29072.044573713676 -999110.19073225465
 27750.392855132377 27981.323762985568 -999223.17888290435
 25103.792676347945 26072.979355948159 -999344.78501704661
 23100.111239340524 24171.759145387117 -999440.8991634011
 21346.991220113909 22672.907829461623 -999515.00499812677
 19554.946104865758 21464.404576596844 -999578.35281633015
 17963.298884194275 20711.856893105742 -999624.09878775768
 16639.708820084339 20343.307081287439 -999654.57531458302
 15468.418896097261 20270.65926533988 -999674.86133732658
 14274.383093202452 20463.789901164426 -999688.68918788363
 12884.088972779347 20958.813641646724 -999697.3183829576
 11190.889297786811 21848.388734561089 -999698.66055048211
 9289.9882862789273 23197.297988942257 -999687.74198929383
 7452.3546524955809 24801.513347549571 -999664.61743216892
 5246.8571491935027 26741.567917270619 -999628.61055263027
 2302.5057483995697 28692.296140713715 -999585.63945739635
 -686.32294806587038 29816.669997559566 -999555.14862916269
 -3700.7969155730866 31102.122594300061 -999509.3606726845
 -0 0 -0
 -0 -0 -0
 0 0 -0
 -0 0 0
 -0 0 -0
 0 0 -0
 0 -0 -0
 -0 -0 -0
 -0 -0 0
 0 0 0
 0 0 0
 0 0 -0
 -0 0 0
 0 0 0
 -0 -0 -0
 35666.451727101041 27068.850755144606 -998997.08785361017
 32519.877037993228 26086.642438286108 -999130.59440882434
 28969.488335324746 23829.745517027033 -999296.20832573122
 25938.326504938133 21655.322227846649 -999428.96207651077
 23473.397651133029 19626.941021933348 -999531.78178026609
 21586.830696772802 17911.210306875353 -999606.52123013488
 20058.733032696036 16561.341426993193 -999661.62735160638
 18708.553371087208 15559.866674920631 -999703.89645125414
 17535.555381869821 14925.414627734763 -999734.83299104858
 16528.032476121774 14610.078609953334 -999756.65526440949
 15611.274822856778 14559.06162208306 -999772.1349503044
 14678.792707124932 14752.061559112273 -999783.43141123187
 13626.054079574324 15212.355238713624 -999791.43569962215
 12384.72599952893 15994.626371555149 -999795.37430873874
 10951.905608716164 17138.495724182383 -999793.14246890566
 9323.4267196297296 18608.38868860291 -999783.37732961809
 7277.3583855314864 20415.722402843283 -999765.09157586552
 4594.1618898365814 22523.647655643443 -999735.75457358453
 1306.2895490514877 24749.668539502865 -999692.82657964423
 -2642.5893527773037 27013.019998412874 -999631.5888726596
 -6188.5338538789838 28006.804295439095 -999588.57584603096
 -0 -0 -0
 0 -0 0
 -0 0 -0
 -0 -0 -0
 0 -0 -0
 0 -0 -0
 0 0 -0
 0 -0 -0
 -0 0 -0
 0 0 -0
 -0 0 0
 -0 0 0
 -0 0 -0
 37059.753004352147 25052.423676652754 -998998.97436142643
 34147.735508309794 23397.160384644572 -999142.88519990479
 30258.402483466489 20801.552526223772 -999325.63486165402
 26753.793357700419 18249.453493820874 -999475.45842214173
 23992.757854127529 16107.635010331987 -999582.35862030252
 21885.277161159887 14356.931152571178 -999657.39789762953
 20294.118517572162 12972.249914935843 -999709.89266173576
 19053.090472610424 11919.299105186647 -999747.42312860396
 18031.218902569384 11164.424243733567 -999775.09009586426
 17167.714740240699 10686.614642887216 -999795.51201136736
 16418.675759722744 10452.409629034893 -999810.56916760188
 15726.548885916549 10430.420373000461 -999821.92514016305
 15022.586091001576 10608.571884337996 -999830.87575335114
 14239.1595367761 10999.260505500284 -999838.11819915043
 13321.439786366949 11632.09409665871 -999843.60458470951
 12227.00476785415 12535.148262938505 -999846.6734517013
 10889.517699871027 13722.468791505065 -999846.54435294727
 9162.9923974665508 15225.86372090447 -999842.09385496296
 6874.113405695527 17083.069550231015 -999830.44327507238
 3876.9873701460633 19315.581971041182 -999805.91979746346
 51.413593838676015 21940.771931838455 -999759.27096660482
 -4223.7885747294913 24595.252830131001 -999688.5680792284
 -7528.5697641534134 26250.4873075162 -999627.04672964127
 0 -0 -0
 -0 0 -0
 0 0 0
 0 0 -0
 0 -0 0
 -0 0 0
 -0 0 0
 0 -0 0
 -0 -0 -0
 -0 -0 -0
 0 0 0
 38067.428674341303 23903.969202663611 -998989.22473191959
 35236.488506462876 21873.450151892644 -999139.60088477447
 31340.939168851521 18874.819950649035 -999330.51924968488
 27629.742757797489 16032.945769289836 -999489.64074926591
 24596.841287116087 13691.088262680067 -999603.69622209773
 22284.267671285899 11863.100952122028 -999681.28833651508
 20561.434664448079 10456.499773471511 -999733.90910633164
 19279.397044597485 9390.7621020618408 -999770.03277590743
 18303.348128403173 8605.9083404700668 -999795.44197246956
 17529.916561863163 8058.9965665849413 -999813.85997578269
 16891.939027231456 7720.0731162970715 -999827.51655822073
 16339.875501311191 7563.1890112829888 -999837.8901804937
 15826.44501555486 7568.7499190165681 -999846.10698988731
 15302.820892333169 7729.1939166222983 -999853.03081709787
 14720.633656594817 8051.0358825074072 -999859.23197516496
 14033.434903779975 8551.8369353100989 -999864.95527637796
 13191.262799284095 9254.276414477863 -999870.16604847473
 12123.299965992672 10185.140526993768 -999874.63639717351
 10719.330304618052 11386.521185576505 -999877.71406963107
 8838.1073338084079 12919.603494340341 -999877.47834637482
 6322.1775536826453 14865.340346208619 -999869.51735082455
 3028.564800384253 17316.21385380486 -999845.47632772697
 -1002.5577246225795 20252.243374151243 -999794.39962240367
 -5274.7538811538298 23304.594948971629 -999714.49565651373
 -8491.7738374369255 25311.2176775997 -999643.55249097222
 0 -0 0
 0 0 0
 0 -0 -0
 0 -0 0
 0 -0 -0
 -0 -0 0
 0 -0 -0
 0 -0 0
 0 0 -0
 39257.857508448134 22991.611478730381 -998964.5671521374
 36284.282263472254 20889.030554657242 -999123.16521193273
 32283.322361382281 17729.758737578075 -999321.49118910602
 28453.53944674481 14688.920875751612 -999487.18435828807
 25252.906594337779 12178.695044394914 -999606.90778703266
 22761.132734297571 10235.0747710466 -999688.53853641974
 20896.043203360001 8772.1914883715053 -999743.16903639538
 19523.490084972502 7683.8756981995211 -999779.87146629277
 18513.725963025707 6884.6473970261268 -999804.90275912557
 17758.299441092706 6313.2635070788983 -999822.37697745627
 17174.298627869917 5927.4421888992465 -999834.94082560355
 16702.094322473233 5698.1414944531853 -999844.27348900307
 16296.480060365218 5604.4590717136034 -999851.49636141257
 15918.351320481926 5632.7184018623484 -999857.42912409408
 15530.42390299671 5777.6642695900955 -999862.70283923531
 15095.578471497571 6043.0157855045745 -999867.79399619962
 14574.90823026414 6440.5626402146245 -999873.03754174546
 13922.703246089332 6989.0375022317639 -999878.64848146122
 13077.434549342317 7715.7153152911505 -999884.71757637186
 11952.969677612684 8662.3229473077317 -999891.03940231528
 10437.030230015103 9890.697054962613 -999896.61591173755
 8394.861049430152 11487.129039631029 -999898.78096454719
 5685.9753071240293 13557.629175996814 -999891.92434779333
 2222.7732882539285 16183.004507910742 -999866.57592101058
 -1921.4719601257011 19310.974868182595 -999811.67936524271
 -6291.8809693711346 22503.445384311963 -999726.96631615493
 -9646.9124760494342 24552.867347219031 -999651.98633559933
 0 -0 0
 0 -0 0
 0 0 -0
 0 0 -0
 0 0 -0
 0 -0 0
 -0 0 -0
 41235.772442285961 21743.402097403017 -998912.8267953709
 37808.108347920541 19908.882986844528 -999086.67457902152
 33459.219195253412 16863.992634233728 -999297.79665687063
 29375.948498619109 13817.46645060722 -999472.92673223175
 25977.685013793394 11240.09019339258 -999599.32985860296
 23314.503534561351 9219.1052441197371 -999685.67161054933
 21303.143441451946 7695.2613920193689 -999743.44660598866
 19819.678640366827 6570.5342745301514 -999781.98044270615
 18738.863223996366 5751.5397475009277 -999807.86894063081
 17952.045639899534 5164.9058613436209 -999825.50867878285
 17372.002485345867 4757.7669911734938 -999837.77543304826
 16932.06209232027 4493.5049664202788 -999846.54506900127
 16582.425919386307 4347.1797455607157 -999853.05179255607
 16284.665881746034 4301.9921445070822 -999858.14119839435
 16006.546312260898 4347.7058818325504 -999862.4345022263
 15718.414652620984 4480.3733501012093 -999866.41992590798
 15390.704663061029 4702.3354627164854 -999870.49874029693
 14991.31767520317 5022.1410097251091 -999875.01143594924
 14481.707729705919 5454.9290313037873 -999880.25477578794
 13811.462114046282 6024.3383018919276 -999886.46898650296
 12912.790334256428 6766.3647954688076 -999893.73243022105
 11696.949134985894 7733.8968083793625 -999901.67927706335
 10053.096920402213 9000.4915892094123 -999908.95905250369
 7852.7808314342274 10658.879047576173 -999912.3572247033
 4967.4935817407913 12803.459855062765 -999905.69326474739
 1306.6335084528589 15483.855999674732 -999879.26416755735
 -3089.3627667554174 18594.819106184419 -999822.32848646841
 -7807.2754908074494 21639.860895345217 -999735.3464141601
 -11622.597010336734 23379.221289207293 -999659.10552079987
 0 0 0
 0 0 0
 -0 0 0
 0 -0 0
 -0 0 -0
 44487.309421876969 19357.221010607063 -998822.3952711256
 40398.703103278567 18422.133057602005 -999013.79860399372
 35346.273823022064 15884.625436730725 -999248.87770843285
 30724.049957794454 13070.976450603443 -999442.43572544912
 26948.822264596733 10574.726678135396 -999580.88023642881
 24021.918328003325 8559.690849614939 -999674.78668435058
 21819.113565599862 7013.2569819573473 -999737.3357586062
 20194.735501163752 5862.2863333163441 -999778.87868117332
 19014.335738591351 5023.2414649346683 -999806.5923375407
 18164.05264454833 4422.3479656987874 -999825.23974442494
 17552.283278063827 4001.9278778338407 -999837.93783042044
 17107.830771873225 3719.884184961044 -999846.73054820322
 16776.559238632315 3546.7025438578635 -999852.97317214508
 16517.467549923153 3462.241337781456 -999857.58293401788
 16298.58657868995 3453.2241577090495 -999861.20602734329
 16093.320860517399 3511.7834117675907 -999864.32699689281
 15877.54653606883 3634.8427358710032 -999867.33691739361
 15627.241529868472 3823.957336834741 -999870.57496080606
 15316.06130964892 4085.4761119228056 -999874.35568220157
 14912.337227636053 4431.2365530129318 -999878.98584829771
 14375.326694231599 4880.1721248180838 -999884.76031114045
 13651.090183177375 5460.9386365918799 -999891.90710097167
 12668.497336226666 6215.0713325737415 -999900.43607529893
 11335.61375870799 7199.6758074775989 -999909.83019919379
 9537.3029338823471 8487.2979850688662 -999918.49949166353
 7135.9790800991796 10158.446762205258 -999922.93891176837
 3979.4904005194567 12279.789460712416 -999916.68174251041
 -67.448623387503233 14851.863784545569 -999889.70271365857
 -5019.0565399621 17690.051179341761 -999830.92128655489
 -10475.368467462758 20170.758613123824 -999741.6702090808
 -15026.106424648571 20931.731804704905 -999667.98424745549
 0 0 0
 -0 -0 -0
 0 -0 -0
 0 0 -0
 43221.291731289872 16502.303933392268 -998929.22367201222
 38256.977425097306 14678.668538826858 -999160.11748279026
 32883.147681840295 12272.382121848521 -999383.85379972472
 28451.561474763039 9985.3950103253137 -999545.29689060897
 25060.877370644601 8064.7043410722927 -999653.3964176306
 22543.896334358778 6550.938040809825 -999724.39099426358
 20706.046186569187 5403.6974213059984 -999771.0036330811
 19379.668578761586 4557.9031639064087 -999801.80734209809
 18431.23334243301 3948.3279495101788 -999822.33438940533
 17757.378243734031 3519.2934623157944 -999836.13161929464
 17279.300968704272 3227.2892580193675 -999845.49324487022
 16937.505836283191 3040.1897475047967 -999851.92810853012
 16687.233084938522 2935.1855219243471 -999856.45016568294
 16494.501788324789 2896.602053897428 -999859.76072012039
 16332.697982413314 2914.1426784047603 -999862.36590296042
 16179.710195300768 2981.743253318059 -999864.65393330459
 16015.590721547544 3096.9772424409243 -999866.94594120851
 15820.522029789892 3260.8782226457606 -999869.5303667984
 15572.778395422536 3478.1256870883421 -999872.68750314019
 15246.354284280447 3757.6751866076834 -999876.70667849353
 14808.085430374414 4113.9592315545151 -999881.89099779574
 14214.198748556721 4568.6725537401871 -999888.53568036924
 13406.248292283675 5152.8918004085899 -999896.85478694178
 12306.227071494715 5908.9448489834731 -999906.81623141072
 10810.6944180023 6890.8122134748028 -999917.819419796
 8784.0719130162488 8160.890620041213 -999928.11738890246
 6052.9615435052947 9779.3924037419711 -999933.86038315878
 2410.9199335922976 11778.491234327272 -999927.72469279834
 -2330.6326188742864 14104.156134279392 -999897.81524480565
 -8107.8740976786303 16490.893703345642 -999831.1421447529
 -13606.359589120597 18234.46437653093 -999741.15214270959
 -0 0 -0
 -0 -0 -0
 0 0 -0
 46972.92688104706 14400.006969399941 -998792.36277592194
 42286.585633007657 13592.440094361824 -999013.05809673131
 36190.949460249947 11533.603070073794 -999278.33518864366
 30815.437693301024 9442.1466573893558 -999480.49238905637
 26678.714465912817 7642.8392304086956 -999614.84242829471
 23642.580987679696 6196.5961914613599 -999701.27066033124
 21457.246806372757 5081.6681330889796 -999756.8520437734
 19900.169004662352 4248.2151465294264 -999792.94653525855
 18798.697312121923 3641.204153610171 -999816.65849878639
 18024.404791182489 3210.464291602892 -999832.39282939618
 17482.896124786887 2914.4565405987155 -999842.91480520228
 17104.890530149598 2720.8744612642681 -999849.99853083841
 16839.383452331418 2605.7102215929385 -999854.81217984157
 16648.508419402642 2551.753484343149 -999858.14779975871
 16503.636350144083 2547.0844280742085 -999860.56145251484
 16382.337249877826 2583.8447145274695 -999862.46192800056
 16265.987921934118 2657.3868645491689 -999864.16874092247
 16137.823080987982 2765.7943074873697 -999865.95153953275
 15981.236603195199 2909.7235131183661 -999868.05808852089
 15778.077847374107 3092.5515441137427 -999870.73583758285
 15506.719175651828 3320.8551837853802 -999874.24888395623
 15139.661877933062 3605.2660264293713 -999878.88901361474
 14640.477276699397 3961.6884309167835 -999884.97410946549
 13959.771659439355 4412.753427129438 -999892.82044747577
 13029.732127658986 4989.2030529861522 -999902.66222946788
 11756.64266262071 5730.6286802009699 -999914.46696616663
 10010.861598816799 6684.5831372734556 -999927.54687443736
 7614.8558824326765 7902.4267056922226 -999939.78099786129
 4334.9629356122005 9428.8106845042421 -999946.15136287361
 -99.066143658774251 11278.498751542056 -999936.39080284035
 -5855.5788157063471 13382.709082302179 -999893.3019549395
 -12435.962394181386 15408.894042748578 -999803.93719154247
 -17631.546364539365 16078.870522672931 -999715.25870895362
 -0 -0 0
 0 0 -0
 45929.601597931636 12036.771616494301 -998872.15789915156
 40465.676979997625 10803.198204873357 -999122.52496633097
 34244.21147896297 8987.7349631365814 -999373.08078635787
 29128.772801197378 7292.9895729839418 -999549.06177645165
 25322.35447819639 5907.0096559088106 -999661.88563964237
 22596.162453116947 4831.164253395179 -999733.00100294233
 20675.185319722408 4021.5612207495114 -999778.15727157344
 19332.673609442008 3427.7696561409393 -999807.23048310447
 18399.757511372751 3003.5610222631585 -999826.19866890274
 17754.87413275685 2710.0006800275628 -999838.69716111908
 17311.269730170912 2515.9470771335009 -999846.983268257
 17006.884224038909 2397.4633166633125 -999852.4981509198
 16796.931994482373 2336.7600991931854 -999856.19097338757
 16648.609640616163 2321.0170601869813 -999858.7083567559
 16537.288561496716 2341.2987588231081 -999860.50847463508
 16443.731811437156 2391.6798630273588 -999861.93224442075
 16351.985809556123 2468.6256467909861 -999863.24987345142
 16247.716277277588 2570.6244875550101 -999864.69264871906
 16116.756082879367 2698.0578054792982 -999866.47641444765
 15943.671591074439 2853.2989107454605 -999868.82040671818
 15710.1155904146 3041.054256037512 -999871.96393195621
 15392.749623895772 3268.9610645270159 -999876.18091070384
 14960.435539203747 3548.4380902609296 -999881.78999099554
 14370.317594680815 3895.7348074642791 -999889.15246768121
 13562.218649166394 4333.0599290143437 -999898.64027158474
 12450.625600572883 4889.5733366636487 -999910.53299519734
 10913.526219835621 5601.8994199772515 -999924.75400318857
 8778.2757319813045 6513.5432773797074 -999940.25602990249
 5808.6895242718774 7671.6708673325838 -999953.70122426888
 1712.0266965059077 9115.9747195134623 -999956.98305952328
 -3767.4766417495493 10838.161115055733 -999934.16802477452
 -10458.070463060285 12634.050068911116 -999865.49572482286
 -16514.635492037734 13779.699107294919 -999768.66659596679
 0 0 0
 -0 -0 0
 44394.516157990904 10225.935668079306 -998961.73959507106
 38668.990752157384 8686.1826180386306 -999214.32104715938
 32607.122188261103 7047.0273513618586 -999443.40259371814
 27804.989703628209 5680.5454354806106 -999597.2258620651
 24305.991965919162 4624.3501145902783 -999693.8702125618
 21839.551585884194 3834.9672803277163 -999754.1332810215
 20127.24324052512 3258.3678505248822 -999792.1169515627
 18948.205610147292 2846.9702476534044 -999816.41328024026
 18141.08404791815 2562.1347287203425 -999832.15418148972
 17591.570187207115 2373.421629833274 -999842.43935137906
 17219.410836781564 2257.3430228871816 -999849.18677414104
 16968.121134255864 2196.1444345695218 -999853.61919372762
 16797.540953684969 2176.6973186442087 -999856.54201324913
 16678.597917311814 2189.527616780003 -999858.50515976921
 16589.645375857592 2228.0033299387587 -999859.90001973044
 16513.852956059713 2287.7004694090879 -999861.01988581812
 16437.303558108957 2365.9505624376288 -999862.09915651602
 16347.511663572302 2461.5657690531771 -999863.34044026944
 16232.164065360172 2574.7317148294719 -999864.93468185572
 16077.866341702076 2707.068103490551 -999867.07816398342
 15868.706586812688 2861.8620261445826 -999869.98849700682
 15584.381594935418 3044.4869312424084 -999873.92112687312
 15197.596358015349 3263.0120510849947 -999879.18561058817
 14670.301072898686 3529.0004528530608 -999886.1577310859
 13948.198392794362 3858.4802185837298 -999895.27446227998
 12952.759637960575 4273.0744688323666 -999906.97909972863
 11570.014970857277 4801.2743366711775 -999921.53818103054
 9636.0756750168239 5479.7715043344006 -999938.55718731345
 6922.4899992611099 6354.2439500445344 -999955.85038342234
 3135.2093857076675 7476.5751300052561 -999967.13510316587
 -2023.5303594070067 8886.5009202388865 -999958.46685063827
 -8551.1383626209335 10538.824621001533 -999907.90136307594
 -14880.463685432664 12058.635965776295 -999816.56372514216
 -0 0 -0
 49139.403814388323 9517.9054797047011 -998746.57870154723
 43994.599791965302 8565.822783692447 -998995.04596828879
 37278.462832376325 6917.1566708151386 -999280.97607852344
 31332.854292730084 5505.022152165041 -999493.84539024299
 26809.948158609051 4437.3334344311997 -999630.70018468553
 23569.718183614914 3656.7082682844521 -999715.50796683459
 21311.845744820654 3096.3769587207526 -999768.08194734773
 19761.060078691731 2701.8347540123741 -999801.0805122829
 18705.159736379552 2431.491945916347 -999822.08659648721
 17990.91311077476 2254.0749573013109 -999835.60958365933
 17510.689023521227 2146.1087274725523 -999844.37288372603
 17189.599397458944 2090.0117784304875 -999850.06352118659
 16975.469977428078 2072.7083331024673 -999853.75795623788
 16831.590654270116 2084.5936328870571 -999856.16566855903
 16731.650304783168 2118.7390879753348 -999857.77129687578
 16656.213962433583 2170.2788144867754 -999858.92026140622
 16590.264824092828 2235.9464265462075 -999859.8720103954
 16521.429519537873 2313.7471888965229 -999860.8347868101
 16438.636615497169 2402.753262235487 -999861.98947804002
 16330.97643633263 2503.0177681207692 -999863.50774027593
 16186.588089991919 2615.6058629499043 -999865.5674499321
 15991.356195338421 2742.7508430400421 -999868.36825896578
 15727.199183333891 2888.1449984860592 -999872.1487391853
 15369.626824265453 3057.3825889535942 -999877.20595230465
 14884.167001584441 3258.5753009794234 -999883.91489196208
 14221.082404139639 3503.1792788428252 -999892.73852258536
 13307.679133102027 3807.1023769783419 -999904.20123508922
 12037.472646372195 4192.2168907521564 -999918.75898486294
 10256.054956095348 4688.4457933106232 -999936.41388479352
 7745.8074409484234 5336.4953994140515 -999955.76116343262
 4219.2083495268762 6190.6168208718773 -999971.93687837082
 -645.83163355644308 7317.902843663398 -999973.01523564709
 -7019.1773758808149 8775.8357237006712 -999936.85593457171
 -14262.008881539105 10448.51861081389 -999843.69956583832
 -19940.360817789566 11313.501112805672 -999737.15880876745
 48801.768192744596 6860.2476162710564 -998784.92400711833
 42981.064801490931 6195.2702951972396 -999056.6784194475
 36122.921272640844 5123.4763881086656 -999334.22064313933
 30383.971432284841 4158.579210027031 -999529.64963474509
 26103.466698039363 3423.4418542697622 -999653.38446494262
 23068.02885792364 2895.6960081772108 -999729.70396464574
 20969.455051069835 2528.9991936934862 -999776.91817621957
 19539.183445201947 2282.396516931291 -999806.48676453112
 18573.374937052937 2124.4133771012653 -999825.24303562741
 17925.856175094577 2031.6988981553975 -999837.25469697174
 17494.457776264797 1987.0352387468533 -999844.98580433673
 17208.473581720737 1977.71888437454 -999849.96727759193
 17018.958609492791 1994.3893535778989 -999853.17795112019
 16891.738927519244 2030.1940858300943 -999855.26325962727
 16802.516157787868 2080.1835525589859 -999856.66387095442
 16733.487383920226 2140.8649961228139 -999857.6934229394
 16670.986854473806 2209.8752565427008 -999858.58732555201
 16603.815583028023 2285.7488864276797 -999859.53446477337
 16521.977900072448 2367.7710216896216 -999860.6992509797
 16415.635650149448 2455.9086046336793 -999862.23822040949
 16274.074731613031 2550.822268683175 -999864.31469344057
 16084.508281952649 2653.9636366635268 -999867.11370578792
 15830.468647099684 2767.7713133203292 -999870.85951355263
 15489.507232405458 2895.9826337516633 -999875.83651685598
 15029.783732498583 3044.0920104038523 -999882.41263899952
 14405.0219212136 3220.0027425186463 -999891.05752866261
 13547.142540503364 3434.9519822864604 -999902.33324753621
 12355.891304452822 3704.8201276050668 -999916.79966779961
 10685.195099928607 4051.9327848987859 -999934.70209128305
 8327.8845749235006 4507.2480501054097 -999955.16452165088
 5006.4971666395631 5111.8061914713599 -999974.40188415884
 396.24098427279483 5912.1798902247001 -999982.44440691452
 -5740.7178154611584 6928.2952924532001 -999959.5206223618
 -13093.077239882883 8021.8281687667177 -999882.10385085968
 -19524.521603267764 8644.0128110500227 -999772.01105986454
 48414.10716157611 4372.1793223518125 -998817.78031616972
 42297.072215931054 4060.5616481464485 -999096.8268997065
 35391.630705365307 3519.8185832414702 -999367.32153555832
 29782.750382053029 2988.8273176410717 -999551.92696074874
 25664.064819361047 2568.5703894190956 -999667.32377481565
 22769.75332765251 2268.892270443796 -999738.1609507876
 20782.007892693367 2069.8129914444407 -999781.8882246908
 19435.37044532302 1947.6176603510658 -999809.21838173806
 18531.472219493946 1882.3016912351004 -999826.50568872259
 17929.068151664676 1858.5249714293707 -999837.5340024716
 17529.862006083062 1864.861880817733 -999844.6010396881
 17266.090065710538 1892.8598242669486 -999849.13822812715
 17091.064012807226 1936.2749392703709 -999852.06224234472
 16972.370295619108 1990.5135612897641 -999853.97758988326
 16887.126054878099 2052.2312663081252 -999855.29619062191
 16818.690760468067 2119.0434425054068 -999856.31032463477
 16754.392530692097 2189.3145636429804 -999857.23842590093
 16683.90871684478 2262.0085399803843 -999858.25520785339
 16598.065148135309 2336.5894049619646 -999859.51242326584
 16487.832316499094 2412.9701129694904 -999861.15484137938
 16343.355711680375 2491.50967806778 -999863.33421303402
 16152.812689151295 2573.0656676988924 -999866.22403964563
 15900.889640452966 2659.1112598770219 -999870.03697278071
 15566.57209563353 2751.93445223548 -999875.0465382972
 15119.875093412933 2854.9432188635724 -999881.61233036814
 14516.977914951518 2973.114942360789 -999890.20294218138
 13693.120486950012 3113.6381682477545 -999901.39699306723
 12552.537740793352 3286.7892452523661 -999915.81186254031
 10955.043404363685 3506.9882442182907 -999933.8418402808
 8700.3016453988639 3793.5893056449204 -999954.95570123522
 5515.6386577960639 4169.6934864333925 -999976.09540749807
 1067.735421443738 4653.7140774373556 -999988.60137821338
 -4937.134581233574 5230.647907569637 -999974.13217772485
 -12350.344482522349 5787.0169532886212 -999906.98538711364
 -19126.467794869917 6072.7604934191495 -999798.62962982792
 48189.779450474336 2469.7761797193525 -998835.14423659374
 41967.763789312317 2372.1167076902721 -999116.14933642722
 35041.190780157653 2179.6967427644772 -999383.49189428682
 29493.640641327995 1980.5442611794251 -999563.00582111883
 25462.186540034745 1824.6717805655542 -999674.12071609288
 22649.355928565619 1723.5851069516132 -999741.98467924725
 20727.683668801554 1671.2218586074987 -999783.76169411035
 19431.433739871638 1657.0781884330745 -999809.81865287293
 18564.650353490819 1671.3074365703887 -999826.26515245403
 17988.73254263014 1705.9779905410467 -999836.73424244893
 17607.589556062154 1755.0063470667426 -999843.43411493534
 17355.182859254004 1813.7866535976038 -999847.74231174693
 17186.165913501387 1878.8385923865915 -999850.54166447185
 17069.204359559819 1947.538796335356 -999852.41378673888
 16982.30789408875 2017.9276069869213 -999853.75389942073
 16909.610083511277 2088.5693632426924 -999854.84094684396
 16839.125751645708 2158.4499790759742 -999855.88208381727
 16761.170962182943 2226.9005899860172 -999857.0418123476
 16667.177075636184 2293.5429221693989 -999858.46241815318
 16548.719754993952 2358.2542867774314 -999860.27949468489
 16396.565864027409 2421.1549831594398 -999862.6358837568
 16199.57159063039 2482.6219208742737 -999865.69621558569
 15943.193684568792 2543.3370445958212 -999869.6645122373
 15607.347094348766 2604.3808409654266 -999874.80612180242
 15163.21049168939 2667.3874592679176 -999881.4740216597
 14568.482990237071 2734.7805829148028 -999890.13410400576
 13760.417357080247 2810.1100928122328 -999901.37223399431
 12645.88950698609 2898.4830650761082 -999915.83659551002
 11087.914919150682 3006.9824085596279 -999934.00592216081
 8889.1441350914392 3144.6522412259424 -999955.54615134117
 5776.8136192776792 3320.8328698136561 -999977.80000030959
 1406.7925302015069 3539.0411630891617 -999992.74803491589
 -4550.4076887796991 3782.1846437397521 -999982.49428136798
 -12009.255232111866 3991.1042309844952 -999919.92123158905
 -18921.986906666021 4072.7727399774894 -999812.66792020213
 48166.839683317608 898.14600518227201 -998838.90036815987
 41922.002578990505 941.91992436995145 -999120.44243255421
 34993.295345599465 998.69581309694343 -999387.04808874161
 29468.075713494643 1063.4924656225719 -999565.15620419628
 25468.830177986143 1134.907902616068 -999674.97251527582
 22687.317577726531 1211.8557549489847 -999741.87519917183
 20791.760182677932 1293.1246486970822 -999782.99172227818