# OOMMF OVF 2.0
#
# Segment count: 1
#
# Begin: Segment
# Begin: Header
#
# Title: Oxs_TimeDriver::Magnetization
# Desc: Oxs vector field output
# Desc:  MIF source file: /mnt/gpfs/work/plgrid/groups/plggspinsym/MF/switching-obrazki/p-ap/Anisotropy.mif
# Desc:  Iteration: 50500, State id: 353650
# Desc:  Stage: 0, Stage iteration: 50500
# Desc:  Stage simulation time: 7.43371e-09 s
# Desc:  Total simulation time: 7.43371e-09 s
# meshunit: m
# meshtype: rectangular
# xbase: 1.0000000000000001e-09
# ybase: 1.0000000000000001e-09
# zbase: 3.4999999999999998e-10
# xnodes: 35
# ynodes: 35
# znodes: 5
# xstepsize: 2.0000000000000001e-09
# ystepsize: 2.0000000000000001e-09
# zstepsize: 6.9999999999999996e-10
# xmin: 0
# ymin: 0
# zmin: 0
# xmax: 7.0000000000000005e-08
# ymax: 7.0000000000000005e-08
# zmax: 3.4999999999999999e-09
# valuedim: 3
# valuelabels: Magnetization_x Magnetization_y Magnetization_z
# valueunits: A/m A/m A/m
#
# End: Header
#
# Begin: Data Text
 -0 0 -0
 0 0 -0
 -0 -0 0
 -0 0 0
 0 0 0
 -0 0 -0
 0 0 0
 0 -0 0
 -0 0 0
 0 0 0
 0 0 0
 -0 -0 0
 0 0 0
 23176.66216333492 34106.102718046444 -999149.44632339792
 20645.315023644111 33572.727599627571 -999223.01961528871
 18201.965150965236 33010.325679238966 -999289.25084941916
 16256.978339619296 32635.201824559263 -999335.10608660954
 14569.485448565769 32484.440286001551 -999366.04466685269
 12822.859776021671 32563.881397267625 -999387.39630611171
 10695.064931278775 32881.913901896296 -999402.01887141692
 7936.5393572185385 33411.43200720325 -999410.16982731351
 4981.3403602773551 33933.959729074675 -999411.66324259026
 0 0 0
 -0 0 -0
 -0 0 -0
 -0 0 0
 0 -0 0
 -0 0 0
 -0 -0 0
 0 0 0
 0 -0 0
 0 -0 -0
 0 -0 0
 -0 -0 0
 0 0 -0
 -0 -0 -0
 -0 -0 -0
 -0 -0 -0
 -0 0 -0
 0 0 -0
 0 0 -0
 -0 -0 0
 0 0 0
 0 0 -0
 0 0 0
 28487.714463355329 31956.482164939411 -999083.19642174745
 26289.96754724166 30609.261311065573 -999185.62375984772
 24492.211413206962 28762.765437374455 -999286.16267037601
 22627.879800667237 28246.067194379837 -999344.85476424859
 20219.92079123803 27119.162581629687 -999427.68914217467
 18066.289312585777 26317.146318074669 -999490.37864310981
 16312.327843232166 25866.282671465851 -999532.31232466653
 14763.615043579815 25707.587278402312 -999560.48122520745
 13168.812688773754 25825.690737752302 -999579.71971738513
 11279.720628833 26259.42574787909 -999591.52180374495
 8925.2080863959145 27090.183721489546 -999593.14853921963
 6345.5748094181517 28291.060798975795 -999579.58640580822
 4576.1353780635491 28802.057393589101 -999574.65978029789
 2463.0687688014668 30445.559280794376 -999533.39174452785
 -265.92525597693668 31645.078316744868 -999499.13371752622
 -0 0 -0
 0 -0 0
 -0 0 -0
 0 -0 -0
 -0 0 0
 -0 0 0
 -0 0 -0
 -0 0 0
 -0 0 -0
 -0 0 0
 0 -0 -0
 -0 0 -0
 -0 0 0
 -0 0 0
 -0 -0 0
 0 0 -0
 0 -0 -0
 -0 -0 0
 33555.467841705438 29432.279995907931 -999003.38911945978
 30880.263115301666 27789.934876975589 -999136.69178419397
 27959.205182024762 26619.360958562746 -999254.56839973829
 25214.157882174295 24583.562804212354 -999379.7549891352
 23073.987785066573 22592.80711203285 -999478.44206590741
 21190.472046488343 21087.122341191527 -999553.04870017502
 19309.713464533208 19850.257342514149 -999616.47757995361
 17630.534988061023 19032.789083513755 -999663.40193874098
 16194.879165086801 18584.128247573422 -999696.1318651312
 14889.567228178457 18436.510012542793 -999719.15850718552
 13554.937160780719 18571.315789116794 -999735.65001375636
 12037.754264486181 19026.010090641939 -999746.51957998751
 10249.191651247704 19878.491375605379 -999749.86854268995
 8276.4918664770994 21157.445963843897 -999741.89777295559
 6327.2779128615148 22641.189315145552 -999723.63286090665
 3951.2252513399853 24543.002941912695 -999690.96666200121
 867.6750104398925 26533.550267249349 -999647.5468135213
 -2274.0745324093114 27627.870329191199 -999615.69083628047
 -5492.9590660372423 29057.245489375877 -999562.65630788216
 -0 0 -0
 -0 -0 -0
 0 0 -0
 -0 0 0
 -0 0 -0
 0 0 -0
 0 -0 -0
 -0 -0 -0
 -0 -0 0
 0 0 0
 0 0 0
 0 0 -0
 -0 0 0
 0 0 0
 -0 -0 -0
 36002.772037715265 25803.349457271986 -999018.51212196564
 32789.902276123226 24717.917234968321 -999156.56774916279
 29162.900144674401 22328.697806818713 -999325.24961065792
 26053.115032673159 20088.583374397876 -999458.69550227257
 23507.441289853799 18007.557114612573 -999561.46789017855
 21516.784458535014 16252.849591758801 -999636.37032008416
 19875.427024408858 14887.370155933357 -999691.61925587698
 18420.108750798201 13861.240943670515 -999734.24748435535
 17139.88498824809 13178.091507221354 -999766.25380476657
 16012.27658494694 12796.459742471305 -999789.90673872421
 14964.104198447665 12673.37859081577 -999807.71204298676
 13898.934159420905 12796.116805727683 -999821.52358504792
 12724.778095380374 13187.59481582144 -999832.06958238583
 11380.908356170819 13892.833031206732 -999838.71905190556
 9856.4053201147381 14938.363533545607 -999839.83545821265
 8123.8254765263227 16295.938012447386 -999834.20918866433
 5961.2131814485847 18023.059397589186 -999819.80039772997
 3174.7590745272864 20086.656109027885 -999793.20219292166
 -222.65663597926797 22290.819489762784 -999751.50402012246
 -4273.7412844246201 24631.517006749938 -999687.46291297488
 -7847.4477064979783 25695.435546560188 -999639.01592353149
 -0 -0 -0
 0 -0 0
 -0 0 -0
 -0 -0 -0
 0 -0 -0
 0 -0 -0
 0 0 -0
 0 -0 -0
 -0 0 -0
 0 0 -0
 -0 0 0
 -0 0 0
 -0 0 -0
 37335.660636732566 23598.103186313354 -999024.11280750728
 34330.514590851322 21868.904326048225 -999171.23997416242
 30396.212946901418 19214.217820894384 -999353.2328821565
 26861.099858571335 16616.973720634323 -999501.0542759602
 24051.941184391078 14447.661592900047 -999606.30710283143
 21873.752312500263 12673.082266757747 -999680.41490549932
 20187.773150814493 11264.427515778445 -999732.74753203592
 18836.153664834586 10187.720409895413 -999770.67853981606
 17697.416801443655 9399.1181569395285 -999799.20884967095
 16711.314342872705 8870.7803204494212 -999821.00459504256
 15832.378080031691 8570.9911352077925 -999837.92382330215
 15005.635481556112 8473.9945151084085 -999851.5001342711
 14168.903782970827 8571.892760026707 -999862.87300814386
 13261.908656737123 8877.145443333291 -999872.65092488565
 12233.722306101661 9415.6417832972184 -999880.83376387693
 11039.035817465397 10212.822772189193 -999886.91257523943
 9605.3762264112447 11289.968311545214 -999890.13064589933
 7789.4207043936585 12696.270760730022 -999889.05866293982
 5427.2146133766282 14476.588334467764 -999880.47972331929
 2374.3366640255176 16658.827625756614 -999858.41297032707
 -1478.2860197583921 19281.080554990076 -999813.00981887395
 -5750.0002805484546 21960.272993408875 -999742.30875102454
 -9060.6271480436117 23632.373795397314 -999679.65666231245
 0 -0 -0
 -0 0 -0
 0 0 0
 0 0 -0
 0 -0 0
 -0 0 0
 -0 0 0
 0 -0 0
 -0 -0 -0
 -0 -0 -0
 0 0 0
 38351.766376620988 22280.093846206328 -999015.88547630084
 35398.54067761662 20180.708423168897 -999169.49629451463
 31440.830281956296 17151.789753608355 -999358.43934968056
 27712.462930455338 14308.563598327311 -999513.52387352951
 24661.483712482506 11965.28603391861 -999624.25098195067
 22305.9174428693 10129.241657506176 -999699.87721839594
 20511.370211742207 8705.6568374555518 -999751.71679325739
 19132.264080423021 7614.1581565635797 -999787.96805458888
 18040.894257803979 6795.0888699577481 -999814.15918240929
 17140.994658601536 6202.7742688141934 -999833.84214252513
 16369.346415801834 5805.1082990814648 -999849.16123161069
 15678.930164056577 5577.0109233952207 -999861.52446129802
 15026.035781513003 5501.6438966954656 -999871.96688532433
 14366.78370755409 5573.8410819428263 -999881.25686078041
 13657.768102967684 5800.8636925782512 -999889.90161460557
 12855.682752315988 6199.8498694208993 -999898.14145370247
 11911.139622542163 6794.2996969939722 -999905.97670206963
 10753.440649311589 7615.8125566479684 -999913.17768759478
 9275.8231889129893 8714.1885776210147 -999919.00773092685
 7343.2815083097339 10155.720259202115 -999921.46569753485
 4804.2315138201411 12025.146570104354 -999916.15408969647
 1521.4483227373921 14418.16845456489 -999894.89528320788
 -2473.3705029091029 17309.545003673742 -999847.11935881537
 -6722.6978077676113 20334.612014591363 -999770.62813847535
 -9965.7905300673883 22317.658130237294 -999701.25795394147
 0 -0 0
 0 0 0
 0 -0 -0
 0 -0 0
 0 -0 -0
 -0 -0 0
 0 -0 -0
 0 -0 0
 0 0 -0
 39596.37510893555 21236.635733520412 -998990.05619723455
 36477.316095043039 19054.025840403167 -999152.81589443365
 32390.970359378123 15866.54144485779 -999349.32726337307
 28531.643340260809 12840.564500178127 -999510.41276798153
 25318.140917939894 10352.397982383212 -999625.83980030939
 22800.490993190495 8418.5606177290374 -999704.58908999478
 20883.014316450193 6949.1948615727943 -999757.77486540936
 19429.954973905693 5839.3406149279581 -999794.16829210159
 18315.534355298121 5005.6810230783049 -999819.72593001765
 17437.430909438397 4388.4499454830175 -999838.32568588539
 16718.848946613387 3945.4807770135703 -999852.44574954093
 16105.023550472168 3647.7126977532766 -999863.65190885565
 15554.777588329976 3475.1558416697808 -999872.97802573594
 15033.078497656576 3415.8148635061457 -999881.16231865343
 14506.97723577923 3466.099023804351 -999888.76069742755
 13943.443165353425 3630.8857811339972 -999896.19314263773
 13306.757877045311 3922.9024150726896 -999903.76588521933
 12553.436184252279 4362.552271962214 -999911.68578912131
 11624.210447293883 4980.2323899663334 -999920.03431115381
 10436.529913449822 5821.4502774625334 -999928.59223048156
 8882.9325968481171 6950.4909343234203 -999936.39006901439
 6833.3973453245417 8454.1072881483233 -999940.91462980013
 4149.6510337776781 10436.351743930403 -999936.92949034274
 736.32711514090363 12974.218928761089 -999915.56016774138
 -3359.4822345920143 16019.399678140222 -999866.0373835424
 -7724.0232826822266 19151.352516986914 -999786.75984486728
 -11140.013994044577 21157.58337527643 -999714.08750398771
 0 -0 0
 0 -0 0
 0 0 -0
 0 0 -0
 0 0 -0
 0 -0 0
 -0 0 -0
 41662.706253341486 19922.833616502612 -998933.08064571419
 38065.371427685292 17981.621491389586 -999113.45140910451
 33606.48092152975 14890.348820149213 -999324.212631759
 29474.774166904095 11851.5020947023 -999495.26241293899
 26054.705405468365 9299.6141940931157 -999617.26150666038
 23368.045815885089 7297.6920658183035 -999700.29415083164
 21314.779222504727 5776.1046256528871 -999756.12866441044
 19764.139108088966 4635.3530097015891 -999793.92492042657
 18590.916293824492 3784.067128149095 -999820.01313602738
 17690.177997350023 3151.4545613853534 -999838.54993522295
 16979.932116728512 2686.6323009106682 -999852.2210367847
 16398.906089193337 2354.1504146484426 -999862.75750970107
 15902.213067468405 2129.9234254886528 -999871.28323887661
 15455.860979039802 1998.2011971840097 -999878.55440216942
 15031.848952019056 1950.0718489369387 -999885.11376901064
 14604.635017349967 1982.9806349603844 -999891.3803127876
 14148.466920383893 2100.585252648305 -999897.69897995016
 13634.545468981492 2312.7995967797806 -999904.37049143808
 13027.168629642671 2636.4712162971823 -999911.66704715521
 12278.718665638105 3097.3595750473446 -999919.81650109985
 11324.572528198685 3733.4406815868579 -999928.90521163086
 10079.368929853172 4598.4484150994958 -999938.62841383915
 8434.9294235398665 5764.9378598492958 -999947.80736651039
 6262.6892025713023 7322.5759299463562 -999953.57822536048
 3427.3896039729088 9361.950938235128 -999950.30220263102
 -179.19733453373311 11933.043990891285 -999928.78263875714
 -4546.9519006918308 14941.25619199044 -999878.03460813069
 -9300.3585068983921 17912.74074559662 -999796.29777801433
 -13227.140141649796 19607.273929406769 -999720.25965903595
 0 0 0
 0 0 0
 -0 0 0
 0 -0 0
 -0 0 -0
 45012.951622420303 17574.109716149149 -998831.81009313185
 40729.854730182335 16485.759900544363 -999034.18292576936
 35542.36008551289 13860.086476885621 -999272.05436878151
 30853.155440436582 11024.631489093845 -999463.12603312091
 27044.537522914958 8537.2669144787542 -999597.77313867712
 24089.996827704545 6534.8975740754577 -999688.43504690879
 21848.226289233804 4990.3843068533215 -999748.84399657312
 20164.707561645166 3824.9996285911639 -999789.35478769476
 18902.102491050755 2954.8413633691935 -999816.97296752036
 17947.675874682154 2307.9884826997281 -999836.26365513518
 17213.281985874088 1829.0503287944523 -999850.16752419935
 16632.258603106358 1477.86552626293 -999860.58222496486
 16155.281298973256 1226.3488666992735 -999868.74286308605
 15746.013522453739 1055.4942563646459 -999875.46674074628
 15376.908244647297 953.13044066115174 -999881.31407442503
 15025.579320844225 912.5840425018265 -999886.69315899909
 14671.903187364311 932.05137012828425 -999891.92742871167
 14295.558010467434 1014.4172718221454 -999897.29871560703
 13873.518385649872 1167.4540576349598 -999903.07657223789
 13377.061440567668 1404.5567530384042 -999909.53663196112
 12768.14044729795 1746.2335216199583 -999916.95918111422
 11995.312253058961 2222.3387325073977 -999925.58407839003
 10989.499525631039 2874.6544160866661 -999935.48154976708
 9659.6357323325647 3759.1205986247942 -999946.27878193732
 7888.8739154598597 4945.6749486330837 -999956.65204430139
 5533.2117313127137 6511.7483455488291 -999963.48968420888
 2427.091439479274 8523.0902911828271 -999960.73230854073
 -1586.6993368669678 10985.447458338696 -999938.3992673523
 -6551.9525935425654 13730.056921292116 -999884.27203059359
 -12093.202135841229 16161.126163274934 -999796.26547774021
 -16766.400548172191 16927.423302405634 -999716.13478677021
 0 0 0
 -0 -0 -0
 0 -0 -0
 0 0 -0
 43538.844846358596 14613.87975360673 -998944.84507804143
 38460.350989906467 12673.072832740661 -999179.76091727836
 33020.679205519336 10200.948662148981 -999402.60925774986
 28553.84284326118 7889.6434091216424 -999561.11948482634
 25134.737448766093 5960.4261539076679 -999666.3034700359
 22580.875312161934 4436.5965227580891 -999735.17527464789
 20689.281892290128 3268.8202307472234 -999780.61014858691
 19288.657155677647 2388.7388728914725 -999811.10297482088
 18245.140479575442 1731.0936660460243 -999832.04497735517
 17457.300676574385 1241.6446857011342 -999846.83875659783
 16849.66479255434 878.69374654949411 -999857.64821482368
 16366.807605403603 611.77258619653855 -999865.86767581513
 15968.317451601839 419.4354268474309 -999872.41031627997
 15624.577905758701 287.15937419119211 -999877.88759666076
 15313.229532534269 205.73005056578108 -999882.72446143907
 15016.262155722563 170.19675054837319 -999887.23509400629
 14717.617104532435 179.31999844541065 -999891.67392828222
 14401.082705801009 235.40655555079758 -999896.27132050763
 14048.170286282524 344.49596134626609 -999901.26024230022
 13635.699642243664 516.94929455293902 -999906.89589515945
 13132.878347288448 768.50867785454182 -999913.46470618504
 12497.7569633192 1121.8108738848366 -999921.27070647373
 11672.878027122899 1608.1698080519818 -999930.57644440117
 10579.834123296858 2269.2035942560583 -999941.45719885582
 9112.4940846353948 3157.3162448562989 -999953.49582152441
 7129.1365804284233 4333.1827172184694 -999965.19886401889
 4445.6716005037952 5856.853748834299 -999972.96626868146
 840.14516080289741 7764.8298855480307 -999969.50032136356
 -3893.8298129023428 10016.463649180225 -999942.25260529562
 -9700.6123675708386 12374.107761928008 -999876.38214770833
 -15228.821839866061 14164.775660634165 -999783.69766457658
 -0 0 -0
 -0 -0 -0
 0 0 -0
 47337.900650061543 12540.294799191339 -998800.21233898157
 42475.646555034458 11618.015562501136 -999029.95008364052
 36293.248167606573 9473.8936600029047 -999296.27512383088
 30888.680343204353 7328.2999175776567 -999495.96569819795
 26732.84753415329 5493.5058322339137 -999627.51875705551
 23668.017906680125 4017.2077325925648 -999711.80195614486
 21436.715115063442 2868.2440604260009 -999766.09285426629
 19813.640306058609 1991.7110461126751 -999801.70671235165
 18625.941181344857 1330.7468269325116 -999825.63651268312
 17746.619112874869 835.31937267016406 -999842.16742024245
 17083.834875301825 464.99034449604528 -999853.95252003323
 16571.626925889959 188.85670337596125 -999862.66332640639
 16162.766259313024 -15.728693368287775 -999869.3738381305
 15823.395258603414 -164.77297387991055 -999874.78866723983
 15528.962663410803 -269.12516859433742 -999879.38217079069
 15261.090691857071 -335.62722645076144 -999883.48644492566
 15005.099103175347 -367.89045480787729 -999887.34948368894
 14747.983643776557 -366.72897706725865 -999891.175322745
 14476.61559729697 -330.29800219342115 -999895.15375567146
 14175.943732735917 -253.9564078266815 -999899.48401098268
 13826.952761694703 -129.84067894477886 -999904.39468917437
 13404.162765754214 53.873812384606708 -999910.15872335318
 12872.400371128508 314.01403725381607 -999917.0979155571
 12182.507774333162 673.67261104427246 -999925.56356437923
 11265.482748836801 1163.4884013619655 -999935.86553997302
 10024.469315297762 1822.5110065675717 -999948.0928871145
 8324.1748972037203 2697.8489705445877 -999961.71412870253
 5978.6450617803921 3841.628700049805 -999974.7485272598
 2743.7638301457414 5302.2012658879121 -999982.17905209702
 -1659.8812101946849 7102.7479670752218 -999973.39752899623
 -7400.4983896791664 9186.0897564348252 -999930.42176872026
 -13966.057606783552 11218.636701650712 -999839.53283788532
 -19147.251818054643 11889.526094031722 -999745.97869512602
 -0 -0 0
 0 0 -0
 46101.350564199063 10118.375404545508 -998885.52094588394
 40517.102529613614 8773.9764966789189 -999140.32134582591
 34251.274593318914 6879.4294954630814 -999389.57551024598
 29126.119513552658 5127.6346300987998 -999562.59259997448
 25305.864633554756 3692.1138511237186 -999672.93727021455
 22547.218866194162 2566.1036665072806 -999742.48585992015
 20571.837013513406 1700.986510367896 -999786.93038405979
 19153.524697005625 1043.9415191342118 -999816.00941262464
 18125.353922012739 548.03623584649256 -999835.57208247285
 17368.34933372548 174.71180922345641 -999849.14357977279
 16798.778283017909 -106.23077746283319 -999858.88492487778
 16357.927399254482 -317.58258329153369 -999866.14971830277
 16004.603019488077 -475.99199726297496 -999871.80483990407
 15709.748175576076 -593.22316367144686 -999876.41831305239
 15452.564956745488 -677.23560910536457 -999880.37263874093
 15217.650350431504 -733.01340879723307 -999883.93616917101
 14992.816853425376 -763.13293844200984 -999887.31018596201
 14767.32693618638 -768.09017668817262 -999890.66206892836
 14530.337479900205 -746.41208185563119 -999894.15047880157
 14269.332756857824 -694.5654209664433 -999897.94665333221
 13968.34888265689 -606.65827141904401 -999902.25382045924
 13605.737411569939 -473.92330558546178 -999907.32535879919
 13151.184932531944 -283.97723911775216 -999913.47910296614
 12561.565380094242 -19.875844768118867 -999921.10022748925
 11775.07466957724 340.97707202393212 -999930.61326832185
 10702.930529544457 827.93430610536052 -999942.37924135628
 9218.0325366794095 1477.9675312160562 -999956.42079449119
 7140.9684220196514 2335.7114701155742 -999971.77511263988
 4227.9678510296417 3451.0223882872892 -999985.10725526616
 179.80922043033021 4868.1786607449849 -999988.13418218691
 -5262.3671602591203 6584.0165273800167 -999964.47847822972
 -11925.813854579674 8398.8286173597771 -999893.61166164163
 -17939.786867205305 9601.329878798133 -999792.96782469808
 0 0 0
 -0 -0 0
 44368.705429117246 8219.9963716072652 -998981.4060522822
 38581.922124619232 6592.6947448994752 -999233.69221677596
 32513.275301939862 4881.7541706771517 -999459.38156853453
 27712.647140665351 3452.8298271320559 -999609.9675146509
 24198.84667517633 2333.9748105942404 -999704.44051288208
 21693.785819216981 1477.3918497162488 -999763.5705356301
 19919.018616756352 827.32624685156543 -999801.25436439947
 18656.208927790041 335.67603810382832 -999825.90143986559
 17747.177078225479 -35.989641091542616 -999842.50580303906
 17080.900793181805 -317.42909525088692 -999854.06038424559
 16580.435932298868 -531.18841208769334 -999862.39402388071
 16192.664876546994 -693.98783533010658 -999868.6493660456
 15880.874276359584 -817.93554603399218 -999873.55641284003
 15619.528646936702 -911.54444242438774 -999877.59221395536
 15390.578147176671 -980.54210327814042 -999881.07724942931
 15180.810319230051 -1028.475957923587 -999884.23591696634
 14979.866996483703 -1057.1278681984797 -999887.23667493521
 14778.672980231173 -1066.7568999339599 -999890.22040154983
 14568.046280089904 -1056.1878480570526 -999893.32255736704
 14337.311314193999 -1022.7529729148368 -999896.69240408845
 14072.698707705465 -962.08531462756525 -999900.51182251598
 13755.312879236308 -867.75156863441646 -999905.01467629871
 13358.347285623304 -730.70966467333085 -999910.50630603055
 12843.146027818619 -538.57176455524086 -999917.37835711322
 12153.529986312929 -274.65313873031465 -999926.10540705721
 11207.697159180507 83.218523624965229 -999937.18832687964
 9887.0276999930666 564.15044838096333 -999950.96300645219
 8021.9413150158307 1205.8076551814509 -999967.09670140501
 5378.1251246580596 2055.5707233145854 -999983.4250622082
 1657.1836748667117 3168.2642577511074 -999993.60790150077
 -3438.6513794052698 4589.1912633603961 -999983.5573649396
 -9896.608806983435 6284.9003094251766 -999931.27621963201
 -16125.696386674506 7888.2311671464258 -999838.85587883519
 -0 0 -0
 49239.304004108628 7450.4698648836029 -998759.2209536708
 43891.822389341745 6440.3506992211405 -999015.53031482641
 37097.735621285101 4740.8311627597186 -999300.39654333144
 31144.393431655724 3273.1312972543196 -999509.53640737466
 26618.412522598654 2140.9092054993607 -999643.37472048018
 23355.830783873429 1287.080194466377 -999726.38686441001
 21050.897861226069 645.71247385379434 -999778.19677898416
 19429.646411479203 163.1859267428317 -999811.21328512707
 18283.250314401143 -201.20863139628503 -999832.82716313493
 17462.229518954107 -477.820662940153 -999847.409471886
 16862.577262973249 -689.13460414750921 -999857.57914892433
 16412.854787766577 -851.70000597338606 -999864.93728143873
 16064.227270977488 -977.56537803415665 -999870.48409687437
 15783.300967946574 -1075.3520977888209 -999874.85768391099
 15547.100410433348 -1151.0664622706452 -999878.47397312603
 15339.566234511516 -1208.7082843054893 -999881.61135807494
 15149.063615022846 -1250.7125591366121 -999884.46412057162
 14966.554244857656 -1278.2493336072796 -999887.17780191451
 14784.149943266313 -1291.4015038394764 -999889.87453249597
 14593.854980828595 -1289.232938106808 -999892.67287805933
 14386.294885891108 -1269.7531239658013 -999895.70568457793
 14149.257065146106 -1229.7745870287692 -999899.13800291368
 13865.799391914794 -1164.6524398738702 -999903.18690957152
 13511.647067999045 -1067.8841422335936 -999908.14328965661
 13051.457371024566 -930.53742736921936 -999914.39311602502
 12433.425002870503 -740.45329954254339 -999922.42782708362
 11581.539440988729 -481.143820776947 -999932.81596555305
 10384.86067747989 -130.26417574146095 -999946.06739561388
 8683.7625928464495 342.47322993649874 -999962.23677662853
 6255.5467274088514 977.93650376762935 -999979.95568678051
 2809.5948509587438 1830.0162711012838 -999994.37859281024
 -1973.7205983847996 2963.9609074323143 -999993.65966126963
 -8251.4708852307267 4429.9350396366553 -999956.1434901905
 -15372.300521733941 6085.8339491004353 -999863.31815994415
 -20935.930420687237 6866.0422908726832 -999757.24267478066
 48766.379009591161 4755.3572313378845 -998798.89209785138
 42787.245942950613 4022.3205151887623 -999076.10947429354
 35857.87462299654 2895.2492708351933 -999352.70568462508
 30099.630020815468 1870.0747357826826 -999545.15410415176
 25803.171431632774 1062.4020003351461 -999666.47820463567
 22733.868924318998 450.90881632669829 -999741.4505185684
 20578.440883501728 -8.4418078320715129 -999788.24142892379
 19069.807250230602 -354.6153914994224 -999818.09180438565
 18007.708716508292 -617.4830688898918 -999837.65739315958
 17249.906792053142 -819.03337966362221 -999850.87383068714
 16697.980014104294 -975.25371659540406 -999860.10338628711
 16284.69563223835 -1097.6992099844369 -999866.79300025234
 15964.385874949128 -1194.6531825641134 -999871.84738215792
 15706.045715922857 -1271.9653152135456 -999875.8434086733
 15488.517753829405 -1333.6583096693387 -999879.15628504928
 15297.137531763838 -1382.3667877100081 -999882.0363649897
 15121.375192706952 -1419.648721104594 -999884.65765296668
 14953.105227585165 -1446.1956390661828 -999887.15021357592
 14785.261490601981 -1461.9579592375671 -999889.62326927844
 14610.657648537443 -1466.1959566681398 -999892.18366406579
 14420.811812170925 -1457.4593048543184 -999894.95248203562
 14204.573911816406 -1433.4929471411922 -999898.08239537803
 13946.35508446984 -1391.0579364459616 -999901.77724498301
 13623.656235024571 -1325.6485991783827 -999906.31493484497
 13203.525747035128 -1231.0728078520156 -999912.07181811193
 12637.410120861454 -1098.8465916404498 -999919.54096397432
 11853.766990986082 -917.32967375298142 -999929.32085942593
 10747.774738440858 -670.5157774937295 -999942.01619232108
 9167.9763267749768 -336.43326647521292 -999957.91662585922
 6901.606817245879 114.60311631148292 -999976.17706096661
 3666.5572900843413 720.50857432213979 -999993.01858814643
 -863.83436464721387 1521.0590443479932 -999998.47008361667
 -6924.9534597166776 2523.555696946737 -999972.83797422494
 -14199.423611162745 3578.3286674787878 -999892.7802184883
 -20526.395515665467 4172.0468966495382 -999780.60648915695
 48223.077532360337 2274.4552099041075 -998834.00104662345
 41983.890123418038 1884.954579361432 -999116.509680597
 35022.4706224357 1267.7859444620453 -999385.72096578393
 29388.891621572569 659.21098621705278 -999567.83586214436
 25242.813141676383 153.5916717064467 -999681.33762429154
 22303.207514342852 -240.55461476195882 -999751.2235891734
 20248.935348238421 -542.01196326264323 -999794.82237121766
 18816.523080320174 -772.71918127022502 -999822.65495648514
 17811.363012379312 -950.96553544420942 -999840.91285173548
 17096.239956608671 -1090.5566275807789 -999853.25386558007
 16576.637940038148 -1201.5429336020081 -999861.87614549219
 16188.244541685219 -1291.125925248848 -999868.12817116233
 15887.552793852654 -1364.4018618403968 -999872.85395383253
 15645.16738869692 -1424.9131141966072 -999876.59156517743
 15441.134874484986 -1475.0457710985906 -999879.69055969978
 15261.710758255926 -1516.3138149102149 -999882.38357176108
 15097.081137031046 -1549.5591389724239 -999884.8318719595
 14939.712448907956 -1575.0862224392195 -999887.1556807477
 14783.059436180703 -1592.7438299069186 -999889.4560504168
 14620.451693873198 -1601.9599870931934 -999891.8322080978
 14443.967426188556 -1601.7330622302227 -999894.39755215577
 14243.134718693806 -1590.5758213882209 -999897.29631694744
 14003.230566447139 -1566.4056705491182 -999900.72302553023
 13702.919819878005 -1526.365979981688 -999904.9455799812
 13310.840987228048 -1466.5569205707109 -999910.33134127164
 12780.651058715635 -1381.6421974192922 -999917.36959778541
 12043.870984653464 -1264.2941119805987 -999926.67067745689
 10999.857733406081 -1104.4560866865775 -999938.8897860694
 9502.5150556784447 -888.51702605773357 -999954.45533539727
 7344.8600512182793 -598.89477582577592 -999972.84680928977
 4247.4091384596541 -215.74454023132094 -999990.95644405915
 -128.78000394955939 274.33497947542281 -999999.95407801378
 -6077.6601214941338 851.67534513694784 -999981.16817095818
 -13430.236971502403 1408.7105715065672 -999908.81797762681
 -20076.611257439115 1725.5077933907803 -999796.95553810976
 47843.85369684139 371.49177504538693 -998854.75803907367
 41518.167220808529 191.66375795154872 -999137.73077370494
 34548.232280622833 -89.972311628338531 -999403.02758760296
 28975.183317321367 -379.965126304036 -999580.0590138993
 24908.329422838269 -631.87073824721665 -999689.53973958024
 22040.476456495435 -835.96819028817924 -999756.72968715522
 20043.52504575983 -997.89840341770889 -999798.6103723672
 18654.815452017981 -1126.752831037795 -999825.34889274964
 17682.570059088681 -1230.7377313855327 -999842.89365916967
 16992.365270701368 -1316.20508583111 -999854.75301499642
 16491.930112979087 -1387.7858840082506 -999863.03576614358
 16118.637441697916 -1448.7575483035146 -999869.03673860675
 15830.226072180987 -1501.3848395624768 -999873.56690036925
 15598.215013820811 -1547.183324319443 -999877.14340920094
 15403.331929234228 -1587.112569419998 -999880.10203182336
 15232.340001706991 -1621.7154179515962 -999882.66604495933
 15075.819490305788 -1651.2167622682855 -999884.98996129527
 14926.549806585313 -1675.5913117846233 -999887.1888891405
 14778.261482963188 -1694.6059897537395 -999889.35952838336
 14624.546021784779 -1707.840743782376 -999891.59709122987
 14457.77228536322 -1714.6882903132334 -999894.01071544143
 14267.816198244211 -1714.3322423744628 -999896.73991162505
 14040.415565637728 -1705.6990162306827 -999899.97365817055
 13754.860468242619 -1687.3774944742079 -999903.97367481759
 13380.669036949501 -1657.4948751994086 -999909.10107212374
 12872.729871044081 -1613.5357609971643 -999915.84112264914
 12164.280057358696 -1552.0905815488377 -999924.80782582506
 11156.961440007819 -1468.5422959820412 -999936.68079281459
 9707.4198273096699 -1356.7816867050371 -999951.96141802275
 7611.0289480710844 -1209.2996188790657 -999970.30447547976
 4587.5158106201361 -1018.6504960155798 -999988.95846396917
 287.14615906566343 -782.53410462902798 -999999.65259366878
 -5616.1706060187425 -515.71970631768386 -999984.09620398877
 -13005.013033127347 -267.05243570790975 -999915.39558054856
 -19759.896625836293 -116.94082136395416 -999804.74734329013
 47675.130494542151 -1221.8366133493548 -998862.14716927719
 41334.763344069564 -1257.4562640138931 -999144.56218458887
 34369.166939083698 -1290.6664986463977 -999408.37226026028
 28816.837089013974 -1320.4620275169655 -999583.83654409845