# OOMMF OVF 2.0
#
# Segment count: 1
#
# Begin: Segment
# Begin: Header
#
# Title: Oxs_TimeDriver::Magnetization
# Desc: Oxs vector field output
# Desc:  MIF source file: /mnt/gpfs/work/plgrid/groups/plggspinsym/MF/switching-obrazki/p-ap/Anisotropy.mif
# Desc:  Iteration: 23400, State id: 163950
# Desc:  Stage: 0, Stage iteration: 23400
# Desc:  Stage simulation time: 3.44526e-09 s
# Desc:  Total simulation time: 3.44526e-09 s
# meshunit: m
# meshtype: rectangular
# xbase: 1.0000000000000001e-09
# ybase: 1.0000000000000001e-09
# zbase: 3.4999999999999998e-10
# xnodes: 35
# ynodes: 35
# znodes: 5
# xstepsize: 2.0000000000000001e-09
# ystepsize: 2.0000000000000001e-09
# zstepsize: 6.9999999999999996e-10
# xmin: 0
# ymin: 0
# zmin: 0
# xmax: 7.0000000000000005e-08
# ymax: 7.0000000000000005e-08
# zmax: 3.4999999999999999e-09
# valuedim: 3
# valuelabels: Magnetization_x Magnetization_y Magnetization_z
# valueunits: A/m A/m A/m
#
# End: Header
#
# Begin: Data Text
 -0 0 -0
 0 0 -0
 -0 -0 0
 -0 0 0
 0 0 0
 -0 0 -0
 0 0 0
 0 -0 0
 -0 0 0
 0 0 0
 0 0 0
 -0 -0 0
 0 0 0
 -1074.2982157119709 -10440.614303222193 -999944.91821115604
 424.83045274248485 -10257.684992256996 -999947.29832010949
 2466.8003341372914 -9639.5858984401093 -999950.49541455705
 4162.5756266301169 -8681.3104428902752 -999953.65283254336
 5298.0127316643429 -7434.471274973007 -999958.32898074156
 5870.1319395165738 -5910.0281497341894 -999965.3059573028
 5953.172524300714 -4122.6107202502581 -999973.78156516945
 5772.2784176268497 -2174.0408701470005 -999980.97699314484
 5906.4425051515145 -488.52067856610012 -999982.43748801912
 0 0 0
 -0 0 -0
 -0 0 -0
 -0 0 0
 0 -0 0
 -0 0 0
 -0 -0 0
 0 0 0
 0 -0 0
 0 -0 -0
 0 -0 0
 -0 -0 0
 0 0 -0
 -0 -0 -0
 -0 -0 -0
 -0 -0 -0
 -0 0 -0
 0 0 -0
 0 0 -0
 -0 -0 0
 0 0 0
 0 0 -0
 0 0 0
 -3604.6472071345424 -9821.5874472884807 -999945.26997157559
 -2399.2622071930919 -10812.527531472479 -999938.66451360006
 -1247.7748163855299 -11371.894622715801 -999934.55939411209
 -564.67783542827226 -10728.235499101071 -999942.29138586705
 1097.9779461079129 -9611.7767401478086 -999953.20300118416
 3114.5975276512854 -8464.4895570333938 -999959.32502216287
 4813.2123198174158 -7270.9221630554957 -999961.98261637078
 6008.1064401495387 -5930.4478291104233 -999964.36558786943
 6709.3073076992632 -4354.5880698092833 -999968.01086744422
 7024.7958686460343 -2463.0099442899259 -999972.29252865713
 7227.2704690026367 -196.35787688523624 -999973.86366102193
 7873.5398644428251 2389.0291324601085 -999966.14938197134
 9092.222038695234 5332.9085881564388 -999944.44424897374
 8242.2110522380481 6971.1756286491627 -999941.73263611947
 6786.9454082532866 8153.6601831829912 -999943.72601544077
 -0 0 -0
 0 -0 0
 -0 0 -0
 0 -0 -0
 -0 0 0
 -0 0 0
 -0 0 -0
 -0 0 0
 -0 0 -0
 -0 0 0
 0 -0 -0
 -0 0 -0
 -0 0 0
 -0 0 0
 -0 -0 0
 0 0 -0
 0 -0 -0
 -0 -0 0
 -5746.5084394685709 -7345.1133778105168 -999956.51252953126
 -5261.1607221351742 -9032.3588041061957 -999945.36684875435
 -4143.2929451946766 -9927.1145437478717 -999942.14108637581
 -2422.654651232881 -10122.420304468153 -999945.83220873552
 -748.18377620083879 -9905.7926228864235 -999950.6565293856
 672.45403120676758 -8979.034052819814 -999959.46155484428
 2396.4762784809159 -7649.6065257138707 -999967.86969454587
 4237.1142317358026 -6314.8850164642427 -999971.08412704419
 5838.4571105881878 -5021.9743711214533 -999970.34565630183
 7055.2433032569425 -3671.7996177697191 -999968.37021452759
 7894.2717780861767 -2153.3589855984674 -999966.52119867131
 8456.9306575836963 -376.61076613947205 -999964.16860214737
 8932.3315381956072 1688.8063649790429 -999958.67983949871
 9502.151723084442 3917.2381911894195 -999947.18078385759
 9848.804197892965 6068.0687673590837 -999933.08756001585
 9028.6298482931034 7978.5543641260647 -999927.41062205168
 7600.4147749680724 10161.212153545039 -999919.48849035811
 6207.6358112932667 12617.911740072403 -999901.12189203699
 4174.1088330231714 13583.55062219651 -999899.02688618714
 -0 0 -0
 -0 -0 -0
 0 0 -0
 -0 0 0
 -0 0 -0
 0 0 -0
 0 -0 -0
 -0 -0 -0
 -0 -0 0
 0 0 0
 0 0 0
 0 0 -0
 -0 0 0
 0 0 0
 -0 -0 -0
 -6736.3280896050828 -6461.37150326964 -999956.43533214298
 -6707.8726445197972 -7672.0009915101828 -999948.07107437903
 -5522.9686993657433 -8441.2054231909096 -999949.12013949442
 -3765.832719339372 -8559.2110737367238 -999956.27824906679
 -1724.7034738561501 -8172.2194416797502 -999965.11950533767
 252.42453460337228 -7502.2126814235799 -999971.82614648552
 2042.9740233218761 -6500.2787133884567 -999976.78604745038
 3808.8777138258242 -5280.9296497579253 -999978.80189161794
 5510.8400755698385 -4031.9465902205798 -999976.68675242353
 7004.2290092689973 -2804.1113365142028 -999971.53846276959
 8209.5780596810364 -1545.1213904051917 -999965.10710522835
 9133.110078517193 -177.4632734845959 -999958.27653311635
 9840.3360574312483 1356.5968727316804 -999950.66249850637
 10416.114889787614 3058.1053339299992 -999941.07453507953
 10861.731124573153 4844.6014736016959 -999929.27381567319
 10926.199070280642 6632.0464833361475 -999918.31373033638
 10246.012909273504 8494.3532826360733 -999911.42866844602
 8917.4704400794672 10631.390811735717 -999903.72149040352
 7010.2456147228386 12921.909863050245 -999891.93451188144
 4495.8575248590041 15025.209827439443 -999877.00760381389
 2620.2229506314802 16894.817289616665 -999853.83910871646
 -0 -0 -0
 0 -0 0
 -0 0 -0
 -0 -0 -0
 0 -0 -0
 0 -0 -0
 0 0 -0
 0 -0 -0
 -0 0 -0
 0 0 -0
 -0 0 0
 -0 0 0
 -0 0 -0
 -6356.445286285908 -4918.4262283158805 -999967.70182179345
 -7282.5424234844531 -6353.0906909983096 -999953.30031683086
 -6736.0876869272834 -6917.1986871610743 -999953.38765614305
 -5044.0342662419298 -6887.2052486407119 -999963.56139720627
 -2909.0728583691125 -6496.5957656236214 -999974.66544836143
 -684.63082694927141 -5861.5442574008739 -999982.58663816203
 1425.1403364687037 -5069.9828592047797 -999986.13202825398
 3348.2621259876182 -4128.8394879140715 -999985.87081279233
 5121.331930351359 -3083.6694210718092 -999982.13131143537
 6738.1513168673064 -2008.6301267886372 -999975.28105540923
 8150.85577048907 -931.14111479657811 -999966.34769697778
 9329.6240282448707 172.64865742569617 -999956.46320624009
 10283.076251639084 1344.8504776804559 -999946.22341403714
 11045.0938335428 2615.3632072411697 -999935.58081383561
 11639.687055578146 3981.9756709308217 -999924.32791436987
 12022.213089234536 5414.5108933348583 -999913.07095378207
 12035.384958762448 6909.9742234998594 -999903.69624535588
 11493.82704232469 8550.9805828686367 -999897.38107017381
 10330.73775601232 10455.41227275197 -999891.97427103273
 8482.7857792669329 12660.561294402351 -999883.86952342303
 5988.4875639295296 15153.078096620589 -999867.25230947253
 3430.1415806971204 17736.502241705275 -999836.81199332047
 1654.1401241887272 19610.782340719688 -999806.32176258753
 0 -0 -0
 -0 0 -0
 0 0 0
 0 0 -0
 0 -0 0
 -0 0 0
 -0 0 0
 0 -0 0
 -0 -0 -0
 -0 -0 -0
 0 0 0
 -4992.0030958581974 -2844.2688549818222 -999983.49488367618
 -6757.0889749879989 -4639.0908483977919 -999966.40972818912
 -7139.7120540383175 -5453.0355495385074 -999959.64364322275
 -6059.6564575474795 -5423.053365734595 -999966.93498125672
 -4117.5866997610901 -4992.2337279427375 -999979.06132187357
 -1853.3247021503512 -4389.1150005556947 -999988.65036412305
 428.65397292433892 -3693.8678626346755 -999993.08577408933
 2574.0145043776665 -2935.7983180336819 -999992.37773973402
 4525.021874539807 -2117.2961112902672 -999987.52053923765
 6281.1472751626216 -1252.0260132902367 -999979.48959954677
 7842.4825011774428 -364.37104105567897 -999969.18087607226
 9198.8417481952183 536.11413174061727 -999957.54604489554
 10346.421112394415 1461.0144313529408 -999945.40701330127
 11295.953007844069 2430.9102684421059 -999933.2438322627
 12063.992320244986 3460.5413857435447 -999921.23926968104
 12650.581102361915 4551.6370217974854 -999909.61861469981
 13011.196241113206 5702.3318669156124 -999899.09100051422
 13046.67737138273 6935.9739907091271 -999890.83227838785
 12639.112300572238 8322.2709453756052 -999885.48976698588
 11694.909259976377 9957.4810512811746 -999882.03187601804
 10131.571258104692 11930.972225172431 -999877.49407895165
 7934.4690598680263 14306.971056743014 -999866.16843451571
 5283.1147710844471 17008.601306518322 -999841.38551067759
 2575.4838896177162 19595.724504883397 -999804.66815466667
 546.83950485707226 21219.043084134777 -999774.70120880206
 0 -0 0
 0 0 0
 0 -0 -0
 0 -0 0
 0 -0 -0
 -0 -0 0
 0 -0 -0
 0 -0 0
 0 0 -0
 -2871.1632271529588 -418.8287868383066 -999995.7904932251
 -5395.0652735486929 -2569.4098992829449 -999982.14554234105
 -6721.8576824432103 -3785.4822419394536 -999970.2429340051
 -6480.5840671414289 -4017.3553087113346 -999970.93102073332
 -5086.3659127414885 -3681.2471650761418 -999980.28845628304
 -3052.7908568897656 -3113.5717296027196 -999990.49302434293
 -779.90029062627355 -2477.2455136918352 -999996.62749941379
 1486.9398941896068 -1825.0818063543043 -999997.22903923644
 3617.0461264332712 -1164.5096832475851 -999992.78042119707
 5553.9638600215358 -488.62407951765124 -999984.45724518679
 7283.2663454410358 205.23847359635744 -999973.45560195274
 8804.3461260310432 914.11062661027893 -999960.82317811612
 10119.695679410401 1638.1541145976246 -999947.4527246186
 11236.392142992945 2384.4247323685131 -999934.02682892256
 12166.396054510751 3163.1355766144234 -999920.98356838594
 12919.644860667158 3982.2051162113453 -999908.60823331575
 13490.968919850904 4846.3030261413887 -999897.2482733326
 13846.895318901668 5764.5293808496981 -999887.51051858056
 13923.061138831254 6764.9162084906739 -999880.18496078625
 13638.233663570409 7903.6192967090456 -999875.75797423488
 12909.844128708504 9258.7300130997264 -999873.79795808089
 11657.6884016565 10916.633721600199 -999872.45457074104
 9824.4489691476156 12951.322166705326 -999867.8629982
 7407.1494591662358 15365.873235755307 -999854.50145338266
 4484.8533268323727 17994.958138391034 -999828.01899738447
 1369.4916379295757 20384.969304288257 -999791.26697482041
 -1141.302965356311 21666.200752616583 -999764.60888175515
 0 -0 0
 0 -0 0
 0 0 -0
 0 0 -0
 0 0 -0
 0 -0 0
 -0 0 -0
 -47.628511422309664 2163.8895700606395 -999997.65765398333
 -3339.5792325040088 -272.65815097270644 -999994.38641828496
 -5618.566427107201 -1916.6936709512329 -999982.37884308537
 -6292.3631163342789 -2522.4313385326286 -999977.02148927143
 -5630.3236655043593 -2424.9160191523583 -999981.20944231842
 -4072.8318579576312 -1975.7768411844877 -999989.75412077643
 -2024.0974528936924 -1404.9671322649679 -999996.96454382199
 210.79707329394748 -822.2524935632141 -999999.63973265048
 2432.7521533468971 -261.24710641824714 -999997.0067289751
 4526.5611591408433 279.51847754619632 -999989.71600386617
 6434.844774229422 812.2293317485321 -999978.96630691388
 8135.6989929849778 1347.4213074281165 -999965.99685075099
 9625.3976258549192 1891.5036336884123 -999951.88580978615
 10909.13548928606 2449.5755556844697 -999937.49321768794
 11997.440310924887 3027.4721628666625 -999923.44498880964
 12902.948892674853 3631.2381983169812 -999910.15997389483
 13634.510565579107 4266.0767571827291 -999897.94514777302
 14189.109331909453 4937.7028780191704 -999887.13776438578
 14544.915057943539 5657.6700328349598 -999878.21069156053
 14659.828972130652 6450.9556835135618 -999871.72906592221
 14476.498523671986 7360.6046079107527 -999868.11754865944
 13928.023458077087 8445.7502172947479 -999867.33093236841
 12940.016671231375 9774.4493174580166 -999868.49940834171
 11433.845516607716 11410.049804960818 -999869.53045892471
 9329.2340990762877 13383.891717954368 -999866.90956027096
 6553.5624682198495 15653.743042746446 -999855.99520517292
 3115.653130111114 18034.984684174273 -999832.50198871526
 -679.93714759306772 20054.070239882345 -999798.665708396
 -3931.4986264468589 20789.171838936672 -999776.15177238628
 0 0 0
 0 0 0
 -0 0 0
 0 -0 0
 -0 0 -0
 3705.9802298637669 4286.9302827757056 -999983.94384074328
 -588.54548434215633 1965.8472288186447 -999997.89452722645
 -3910.0075218381403 24.095203546403372 -999992.35560108174
 -5550.1483240503367 -954.22767043817248 -999984.14252583706
 -5711.629137422362 -1154.4363193027007 -999983.02214056684
 -4781.8081176371143 -894.15380033701979 -999988.16733004781
 -3141.1405422230382 -426.93273108531116 -999994.97546964558
 -1108.2488383361006 91.658208192785096 -999999.3816914513
 1076.029745670945 588.55328003084708 -999999.24788222869
 3246.1718517837539 1043.5283935170171 -999994.18669150316
 5298.5571599058021 1462.5312145469413 -999984.89303312451
 7175.2818098721355 1860.1861554163909 -999972.52714182925
 8849.4458676921513 2250.5954985310373 -999958.31019484822
 10313.539185369626 2644.441344657228 -999943.31731325993
 11571.717933570191 3049.5331714987956 -999928.39528213313
 12634.807314007849 3471.9326251195062 -999914.14997887937
 13515.833210011944 3916.5252600660647 -999900.98663944041
 14224.763538362182 4387.6651729993082 -999889.19610955252
 14762.787655066979 4891.05982575096 -999879.06150415633
 15117.758308904549 5437.3568188050467 -999870.93593850348
 15262.47640876311 6046.3512610981461 -999865.24014504044
 15155.678014017085 6749.5185222294331 -999862.36524016317
 14743.071170421545 7589.2540888399126 -999862.51308609359
 13955.955604288889 8614.8287082798033 -999865.4989694854
 12707.099494056636 9874.5890123877798 -999870.50267236331
 10883.618017708897 11402.877976007996 -999875.7528976833
 8343.9244869243576 13200.240076704778 -999878.05885821593
 4946.6197101576427 15196.09671376499 -999872.29664498102
 665.64882056906799 17159.468131940543 -999852.5439108893
 -4106.2741475558432 18520.444294732788 -999820.04963680869
 -8068.1462729995028 18272.980618406655 -999800.48169374117
 0 0 0
 -0 -0 -0
 0 -0 -0
 0 0 -0
 2146.7661534072113 3222.0294820172289 -999992.50493246189
 -1682.5616184119706 1664.7355793116012 -999997.19881700247
 -4284.8943042763094 531.54833431183886 -999990.67852513981
 -5325.291599213584 85.152925754800322 -999985.81690860144
 -5116.27402943999 146.47208197493143 -999986.9010572012
 -4014.3387157840352 488.29039089336146 -999991.82329515519
 -2332.7461795629733 937.30046735873407 -999996.83987655456
 -326.95979189229968 1389.173748725774 -999998.98164627654
 1806.7512135322499 1796.2378231177959 -999996.75458460138
 3927.0508032119333 2147.9372290693236 -999989.98226864683
 5939.2499532055554 2453.1120172717806 -999979.35356257414
 7785.4731879253495 2727.5830481725257 -999965.97277005145
 9435.2255620633459 2987.1205389274355 -999951.02561549435
 10877.377809704076 3244.5955265974258 -999935.57555067213
 12113.882624841513 3509.6281895222824 -999920.46501595445
 13154.703047822666 3789.1889426978632 -999906.29352698848
 14013.080886389278 4088.4132702561801 -999893.45354442799
 14700.670566416542 4411.702038183038 -999882.20664737513
 15222.819339869404 4764.4730837736097 -999872.77469065005
 15574.787048333388 5155.5995604127711 -999865.41384406912
 15739.520388152576 5599.9061537858643 -999860.44453664613
 15686.588801517426 6119.6566237199249 -999858.23031796853
 15370.716482911346 6744.2750591337708 -999859.11799049401
 14728.084019624637 7508.1941847779053 -999863.34594343184
 13669.172028113047 8446.8527355580482 -999870.89387326897
 12068.035683453449 9590.6737511723331 -999881.18368721264
 9752.6957888477864 10956.027104589783 -999892.4194106753
 6513.4111335566404 12527.557081860783 -999900.31292572664
 2174.4542928796764 14217.512029667065 -999896.56170036609
 -3122.8278437819758 15783.190714693081 -999870.56104133907
 -7923.0957065674465 16730.812341971588 -999828.63755385741
 -0 0 -0
 -0 -0 -0
 0 0 -0
 7635.6055615119067 4789.5900080113925 -999959.37785255257
 2125.1387125800329 3035.6917240360199 -999993.13415703457
 -2108.1378905535216 1768.1963438143709 -999996.21461099747
 -4327.4998881468409 1175.0398412575898 -999989.94596250309
 -4989.8735239350581 1089.790362562087 -999986.95667452645
 -4546.8182311655955 1323.132296853192 -999988.7878195924
 -3343.2547659155994 1710.2464101075757 -999992.94882753387
 -1648.3432750302973 2133.1036789686982 -999996.36640996963
 324.87349902199742 2522.441157381259 -999996.76586867869
 2410.5456816684732 2848.4390003689846 -999993.03780815261
 4484.5002859329152 3107.7187965536305 -999985.11555976048
 6458.7978847557033 3311.3319195892841 -999973.65915848105
 8275.8519240637579 3475.882683233242 -999959.71344574832
 9902.5135087436138 3618.1057338624273 -999944.42322416487
 11324.531269082843 3752.286097694152 -999928.83513806947
 12541.521491206113 3889.547543743498 -999913.78711296432
 13562.274224484754 4038.1167039133056 -999899.87415308028
 14400.119416137924 4204.045557937452 -999887.47494993056
 15068.295342854419 4392.2726732141437 -999876.81962140952
 15575.592771018897 4608.0539464907824 -999868.07467218279
 15922.717020829099 4858.666592869381 -999861.42061868438
 16099.575173917006 5155.0146605969248 -999857.10454197822
 16083.074554257739 5512.6272300338378 -999855.46238139074
 15834.313307375993 5951.7115436116392 -999856.91558931826
 15293.717429736516 6496.2781090883509 -999861.94075877732
 14372.868783047968 7172.5895169265959 -999870.97897807148
 12942.785917968857 8007.2271065793466 -999884.17759595788
 10821.71856222922 9024.5735760502539 -999900.71881118789
 7774.1635719120341 10241.477516739969 -999917.33384266892
 3556.5484629163379 11652.139740653025 -999925.78654742939
 -1883.1632707662004 13179.865998687719 -999911.36848640372
 -7796.5417236106614 14477.61665714451 -999864.79713663307
 -12132.130431452109 14335.827702485996 -999823.63217483461
 -0 -0 0
 0 0 -0
 6280.2433673530049 3838.5479284531598 -999972.91167963529
 1298.2468779123178 2758.6542630956005 -999995.35218004917
 -2372.8944287237223 2043.0604203872958 -999995.09762605769
 -4191.3844767788414 1856.437366515021 -999989.49291303649
 -4595.9002675287766 2021.9770840921931 -999987.39457525278
 -4013.1850138897607 2374.4807747479672 -999989.12803444755
 -2759.6292266303044 2791.6518492681589 -999992.29553356266
 -1072.6531023144903 3192.0312771836939 -999994.33015975042
 862.86736842674316 3530.0713101464912 -999993.39700642519
 2901.5000417298029 3788.4599371788536 -999988.61436958984
 4930.987107303481 3969.1298755248913 -999979.96548639855
 6868.3131271742168 4084.9158257779372 -999968.06935895886
 8656.2091829217443 4153.0990034631586 -999953.90984347311
 10259.542232065347 4191.1815286618003 -999938.58600945212
 11661.507086320746 4214.6164372045487 -999923.12017512752
 12859.628090896216 4235.9511228663068 -999908.33914086758
 13861.541272721797 4264.8401500475038 -999894.82887553703
 14680.565976140213 4308.5656295366953 -999882.9517722741
 15331.208661308588 4372.8913765387279 -999872.90785478929
 15824.898328135807 4463.1711666465326 -999864.81721082737
 16166.261807666748 4585.5834444087714 -999858.80223341566
 16350.02259248625 4748.2720095053164 -999855.05483252357
 16358.151717990499 4962.1423771090986 -999853.88333265996
 16156.407620350459 5241.1948770275694 -999855.73977902741
 15689.086950257786 5602.5077006016818 -999861.22259948263
 14870.886153954953 6066.2076685506918 -999871.02061691845
 13575.557757652683 6655.850203984528 -999885.69541204604
 11623.522561346681 7399.2557404005229 -999905.06786282151
 8777.1701727536783 8328.0628950429018 -999926.79964694148
 4770.2823393947465 9468.1056580022941 -999943.7981114994
 -554.79771115322069 10792.119491295782 -999941.60947346594
 -6820.21230160096 12061.619437151217 -999903.99641201284
 -12026.821915053422 12637.356170771931 -999847.81481165264
 0 0 0
 -0 -0 0
 5487.8365253040283 3367.549231797761 -999979.27141638438
 882.16818481526718 2688.9930669724508 -999995.99553977209
 -2369.0246546462949 2418.4567981863829 -999994.26937803056
 -3912.2377447620192 2535.3916230639761 -999989.13303352764
 -4163.0807362416153 2880.0642356077792 -999987.18691230356
 -3511.5145650307063 3319.030144244377 -999988.32658404636
 -2247.5132096194784 3760.0184207295538 -999990.40542689629
 -586.4851936375876 4145.3239266825085 -999991.23612392764
 1305.0431405016129 4444.9694003994637 -999989.26949714345
 3295.078740722578 4650.1242370314058 -999983.75926845567
 5279.4550379869488 4766.5063725924747 -999974.70356579614
 7178.632506312063 4808.3514395346174 -999962.67279922671
 8935.5957898431298 4793.5826331279341 -999948.58702506276
 10513.721341108889 4740.4420292990781 -999933.4927248552
 11894.181576208124 4665.4903169688223 -999918.37749125028
 13072.752491478788 4582.674928047245 -999904.0465128643
 14056.044892008502 4503.1398226834899 -999891.06873385515
 14857.287801770995 4435.5178933442394 -999879.78636443731
 15491.917399992944 4386.5496015091203 -999870.37093708559
 15973.295801249104 4361.9170300644992 -999862.90435292607
 16308.844217380418 4367.1811171995851 -999857.4645065082
 16496.653109352745 4408.6777112117334 -999854.20136989397
 16522.27615464104 4494.2497618062353 -999853.39730869967
 16355.01307597539 4633.7913114770854 -999855.51032405009
 15942.716985293177 4839.7543181178562 -999861.19364303129
 15204.171699889843 5127.9475986231673 -999871.26037122705
 14018.685152949553 5519.0450550443675 -999886.50186321791
 12214.376299781938 6040.9789140678349 -999907.15348244563
 9561.4296844756282 6731.2328676798252 -999931.63244617369
 5789.1355461874045 7634.4910085185911 -999954.09917489137
 681.28490927442749 8782.08059601678 -999961.20470310131
 -5574.6960811674817 10121.697394806171 -999933.23477392748
 -11187.156780033964 11313.661699201599 -999873.41627934831
 -0 0 -0
 13495.462210429094 5059.4752058082076 -999896.13171087368
 6706.7682663012602 3607.5413127627266 -999971.00203210826
 1190.8106911452464 2908.1499036280247 -999995.06230482738
 -2060.8828811428189 2877.6878907031592 -999993.73581745685
 -3509.5056263624697 3197.1564077583703 -999988.73071708297
 -3700.9148895403023 3669.4593088722809 -999986.41905645945
 -3034.9781035574156 4174.3454175737033 -999986.68178543553
 -1791.0498988373174 4637.6090644743081 -999987.64228485595
 -171.55821739097101 5016.2520671926768 -999987.40381215629
 1668.5574043871961 5290.1300400393957 -999984.61510182649
 3606.0729935455911 5455.9209133571003 -999978.6143536031
 5542.2780513241441 5521.9058526105264 -999969.39538655721
 7400.0671918390517 5503.3715696008176 -999957.47504927579
 9122.6195012832577 5418.8438270752949 -999943.70538796461
 10672.206676783537 5287.3127721366809 -999929.07164873334
 12028.433152685382 5126.4259733321514 -999914.51462244079
 13185.659830111388 4951.4992072735195 -999900.80559545744
 14149.613193294346 4775.1447717053879 -999888.48700187029
 14933.363253620977 4607.3488064440307 -999877.87604232528
 15552.971275795351 4455.8675323617244 -999869.1165992819
 16023.166227044794 4326.8469362924479 -999862.25878350367
 16353.339762288126 4225.5660645017215 -999857.34625998209
 16543.954333040285 4157.2060158842505 -999854.49702102551
 16583.140947840235 4127.5681545506177 -999853.97064643085
 16442.928368395347 4143.7479003606104 -999856.2193935737
 16074.284355910489 4214.8925330318343 -999861.91649816348
 15400.133949343739 4353.3049149719991 -999871.93410489301
 14305.94892265887 4576.2182686939295 -999887.19266314211
 12628.915653025277 4908.4266378528037 -999908.2047054969
 10150.347638685038 5385.3509475254905 -999933.9820398076
 6605.5759177896289 6054.4871570281075 -999959.85397017794
 1751.7895861630157 6968.4732346182964 -999974.18547381728
 -4392.7166762277129 8141.6021491462243 -999957.20826175727
 -10896.351947289484 9322.7339244384784 -999897.17278648959
 -15478.661457314056 9292.9133111058673 -999837.01311847928
 12796.010687920705 3957.4392962628685 -999910.29636897473
 6561.4822132403915 3350.4809850726801 -999972.86024588381
 1392.1147311371219 3106.5522267417941 -999994.20565813186
 -1679.8012762967808 3330.1242301174043 -999993.04424595088
 -3051.5868927458368 3812.6049121081942 -999988.07585951744
 -3224.90963015839 4386.6428681174093 -999985.17855127493
 -2577.8427771932074 4948.3707714644006 -999984.43405551265
 -1375.9957267787634 5436.4322371446715 -999984.27579652017
 188.55810994830955 5817.4375377997885 -999983.06078969815
 1969.0331689260609 6077.565675848653 -999979.59284369159
 3848.2186044078112 6217.0554645507109 -999973.26936019817
 5731.2022967058028 6245.8911378821067 -999964.07043659722
 7542.6407625673637 6180.1347338193755 -999952.45612228895
 9225.9006933631208 6038.8721127544677 -999939.20554201794
 10742.460246999406 5841.8390066765342 -999925.2334374116
 12070.728262493816 5607.7417694002888 -999911.4214526508
 13203.926280240821 5353.2018262254642 -999898.49462882685
 14147.009960347799 5092.2213888307997 -999886.95930615498
 14912.815996849255 4836.0612504103674 -999877.10266343551
 15517.766562960132 4593.4455575780166 -999869.04101427551
 15977.50601383816 4371.0117195907769 -999862.79736678116
 16302.787574315989 4173.9274507109449 -999858.38869659079
 16495.734701850059 4006.5893002154694 -999855.90860824811
 16546.326749878099 3873.3409596582524 -999855.59772443958
 16428.639355400377 3779.2009713534208 -999857.89862807421
 16096.129829240268 3730.6759270259431 -999863.48901319935
 15475.18244973169 3736.8135334135986 -999873.26944606518
 14456.438866392209 3810.6568163467191 -999888.23888969212
 12884.509056691002 3971.0659847018869 -999909.10589978786
 10549.58924389252 4244.1960189671354 -999935.34439329512
 7192.1038415402263 4662.0131188955229 -999963.26896342146
 2551.0928808465183 5249.6091136364503 -999982.96661956573
 -3465.3749351562205 5976.5044848496218 -999976.13600060553
 -10314.860038201756 6622.1649013449269 -999924.87247513351
 -15769.932201984731 6704.587382915538 -999853.16809338017
 12553.317417495911 2993.1723957073341 -999916.7241029751
 6554.1792467435234 2992.6837167284948 -999974.04295240261
 1676.6671950043537 3217.8261395292157 -999993.41716935951
 -1231.149201423063 3708.7967778379871 -999992.36451990204
 -2550.3144857958596 4349.0084061417956 -999987.29093019315
 -2733.7311532011659 5019.5921520364172 -999983.66507088975
 -2129.6514274701331 5638.8883077838391 -999981.83359671559
 -987.73271871005511 6157.9227778427703 -999980.55199645669
 509.34106876770306 6551.0046599865254 -999978.41222179413
 2221.061877449707 6808.9547051844893 -999974.35218107433
 4034.5726655030558 6934.5239717559034 -999967.81678246614
 5857.7197885184369 6938.8986405268897 -999958.76855225186
 7616.51114918239 6838.7471652084505 -999947.608775142
 9254.5316990129613 6653.6814021998471 -999935.03897344763
 10732.719039677049 6404.1680447372264 -999921.89463661099
 12028.572249219433 6109.922639046621 -999908.98700581235
 13134.378242459141 5788.7837534630607 -999896.98373924464
 14054.384594476311 5456.0240655071902 -999886.34657898347
 14801.103098835854 5124.0517193668011 -999877.32819633163
 15391.074353387825 4802.4465499830676 -999870.0172209302
 15840.487736953697 4498.2777150710226 -999864.41303101357
 16160.986183208583 4216.6306970036749 -999860.51154706127
 16355.820082203054 3961.2662859136335 -999858.38773240824
 16416.244029229019 3735.3360820603975 -999858.26705404953
 16317.762285295912 3542.1145609283849 -999860.58231057297
 16015.565595742732 3385.75825914191 -999866.0101731926
 15438.393671705253 3272.144663002819 -999875.46678080957
 14480.209222605925 3209.8111764240621 -999890.00427701091
 12989.843370403833 3210.7799153027067 -999910.47342327016
 10760.967464417488 3290.3741004339031 -999936.68550439179
 7530.6920805430809 3463.4867428034768 -999965.64587808249
 3011.0515696894872 3731.4878124679835 -999988.50471750426
 -2977.3269045648644 4050.803915489988 -999987.36317622627
 -10058.949729439184 4291.0016173109516 -999940.20062974817
 -15944.888910319762 4294.4404326443828 -999863.64985382301
 12923.002588921134 2266.7415952027986 -999913.92523888138
 6987.3919312674197 2632.3729504505432 -999972.12309476361
 2206.2793637634618 3227.9535126761516 -999992.35629453126
 -650.51912064166311 3975.4152514828183 -999991.88641631079
 -1977.9955849015496 4778.3185044549473 -999986.62751345662
 -2209.2751549122945 5551.4777111384228 -999982.14993994404
 -1673.9086892384485 6235.4607189470926 -999979.1583124731
 -610.07284233329949 6794.3253284122429 -999976.73220653413
 806.27061244338745 7209.8593354036266 -999973.6835817548
 2438.9440097665733 7477.0020183628903 -999969.07251821295
 4178.0924418069908 7600.5978907367762 -999962.38652023859
 5933.5524831193461 7592.8231326912337 -999953.56991802657
 7632.3950070963856 7470.8858231020704 -999942.96457921714
 9218.4605741338182 7254.9145391330794 -999931.1907324791
 10652.333517097248 6966.0845876542144 -999918.99744737241
 11910.80634809579 6625.059024090725 -999907.1163288448
 12985.355123182258 6250.7855251888077 -999896.14872377773
 13879.524617656527 5859.6683383257032 -999886.50510113034
 14605.376586042506 5465.1073845726805 -999878.40039479558
 15179.332524913465 5077.3900705868336 -999871.89578173938
 15617.798167539895 4703.8963066966317 -999866.97002147941
 15932.917568436011 4349.5587887620759 -999863.60243590258
 16128.634768165048 4017.4930715021642 -999861.8539027957
 16197.002537689967 3709.7070228721832 -999861.93806074979
 16114.380662374004 3427.8112447358708 -999864.27921290311
 15836.914379771926 3173.6857563150711 -999869.5514224082
 15294.508707863057 2950.0895347980686 -999878.68012830522
 14382.574622225566 2761.1818357416432 -999892.75296008948
 12951.33049617398 2612.7922221313333 -999912.71436820063
 10794.186410520515 2511.8945249796552 -999938.58607697999
 7641.9084469285199 2463.9992261573693 -999967.76445198571
 3185.0603778620143 2466.3172497099149 -999991.88630189048
 -2802.0312060389806 2495.9600436179667 -999992.95937750523
 -9994.3204612223835 2503.7997357790282 -999946.92086400324
 -16044.384048247584 2451.7598386087379 -999868.27463131677
 13842.559088374881 1591.3290217954532 -999902.92090273916
 7876.8979164877601 2212.8437389642395 -999966.52834072406
 3041.3624488522219 3114.1425119935425 -999990.52607055719