# OOMMF OVF 2.0
#
# Segment count: 1
#
# Begin: Segment
# Begin: Header
#
# Title: Oxs_TimeDriver::Magnetization
# Desc: Oxs vector field output
# Desc:  MIF source file: /mnt/gpfs/work/plgrid/groups/plggspinsym/MF/switching-obrazki/p-ap/Anisotropy.mif
# Desc:  Iteration: 48000, State id: 336150
# Desc:  Stage: 0, Stage iteration: 48000
# Desc:  Stage simulation time: 7.06601e-09 s
# Desc:  Total simulation time: 7.06601e-09 s
# meshunit: m
# meshtype: rectangular
# xbase: 1.0000000000000001e-09
# ybase: 1.0000000000000001e-09
# zbase: 3.4999999999999998e-10
# xnodes: 35
# ynodes: 35
# znodes: 5
# xstepsize: 2.0000000000000001e-09
# ystepsize: 2.0000000000000001e-09
# zstepsize: 6.9999999999999996e-10
# xmin: 0
# ymin: 0
# zmin: 0
# xmax: 7.0000000000000005e-08
# ymax: 7.0000000000000005e-08
# zmax: 3.4999999999999999e-09
# valuedim: 3
# valuelabels: Magnetization_x Magnetization_y Magnetization_z
# valueunits: A/m A/m A/m
#
# End: Header
#
# Begin: Data Text
 -0 0 -0
 0 0 -0
 -0 -0 0
 -0 0 0
 0 0 0
 -0 0 -0
 0 0 0
 0 -0 0
 -0 0 0
 0 0 0
 0 0 0
 -0 -0 0
 0 0 0
 21130.362766346658 32557.213935029118 -999246.48390182049
 18612.653288225247 31885.408037966161 -999318.21252883435
 16233.876828563629 31188.08915631727 -999381.69101594645
 14348.470272254785 30702.470767187075 -999425.57486269891
 12702.821133191721 30470.156686171456 -999454.95540658478
 10983.023917711918 30501.204380345735 -999474.38672382757
 8876.4538679179896 30808.941277920607 -999485.87669064349
 6153.8804000632545 31369.282886315359 -999488.91832136887
 3285.326976784967 31952.129862244696 -999484.0008844171
 0 0 0
 -0 0 -0
 -0 0 -0
 -0 0 0
 0 -0 0
 -0 0 0
 -0 -0 0
 0 0 0
 0 -0 0
 0 -0 -0
 0 -0 0
 -0 -0 0
 0 0 -0
 -0 -0 -0
 -0 -0 -0
 -0 -0 -0
 -0 0 -0
 0 0 -0
 0 0 -0
 -0 -0 0
 0 0 0
 0 0 -0
 0 0 0
 26565.531781411672 30525.294006235647 -999180.90401438496
 24319.475237155239 28967.177726334627 -999284.47688271455
 22446.658959202981 26943.238257877118 -999384.9155424292
 20512.806372594405 26408.475795761264 -999440.75221138797
 18127.233686304247 25229.010019654419 -999517.33374279703
 16043.444136372427 24352.520667581295 -999574.69087476283
 14356.696978009848 23826.008991331779 -999613.02840020356
 12861.537386129859 23606.751383513001 -999638.58576246549
 11310.791610002338 23690.062233791443 -999655.36408530024
 9468.6609802026342 24121.797978700095 -999664.18527499342
 7188.4993338019485 24983.397149036682 -999662.02055705874
 4746.2866306219021 26222.999603401611 -999644.85046191281
 3152.3874610362877 26709.503783057997 -999638.26700509933
 1083.425822568568 28331.293179701166 -999598.00120611105
 -1614.2291692574624 29559.518461800533 -999561.71852092026
 -0 0 -0
 0 -0 0
 -0 0 -0
 0 -0 -0
 -0 0 0
 -0 0 0
 -0 0 -0
 -0 0 0
 -0 0 -0
 -0 0 0
 0 -0 -0
 -0 0 -0
 -0 0 0
 -0 0 0
 -0 -0 0
 0 0 -0
 0 -0 -0
 -0 -0 0
 31662.355150047824 28100.444421171862 -999103.52831410069
 28878.468278845477 26229.143696640178 -999238.74328951491
 25895.275393038046 24939.841530733218 -999353.51053405553
 23128.694152556742 22774.369131190004 -999473.05697426072
 20962.492727294339 20678.07256352577 -999566.40160307323
 19055.255924079211 19137.483831652724 -999635.26044966071
 17200.103286965194 17878.7163065489 -999692.2066066874
 15580.948787883244 17025.155258915478 -999733.65359143505
 14211.820271510293 16531.782628273279 -999762.33392126858
 12969.549905726713 16344.711585544426 -999782.29689189245
 11696.767849944072 16456.239391438743 -999796.1681297624
 10249.966591149743 16909.05390630136 -999804.49192873412
 8555.3102781458292 17776.360686004115 -999805.38489588362
 6708.5527401951658 19064.899998406083 -999795.74159334297
 4884.8383902391506 20528.543268937301 -999777.33384246961
 2583.3912353681158 22419.471943890432 -999745.31425132579
 -417.38205921998133 24436.156248502721 -999701.30542078207
 -3445.4032550882407 25552.153328807784 -999667.55306785414
 -6614.4359303476012 26998.245936009735 -999613.59732333675
 -0 0 -0
 -0 -0 -0
 0 0 -0
 -0 0 0
 -0 0 -0
 0 0 -0
 0 -0 -0
 -0 -0 -0
 -0 -0 0
 0 0 0
 0 0 0
 0 0 -0
 -0 0 0
 0 0 0
 -0 -0 -0
 33990.965920688344 24345.295194083898 -999125.57811202679
 30698.674304026048 23145.556283566661 -999260.6640012901
 27028.607798542202 20618.106899241153 -999422.00697621412
 23900.569741356805 18289.370797376774 -999547.02824923373
 21356.192294877859 16138.458406049396 -999641.6674043457
 19369.157888139751 14326.170526281674 -999709.75615963456
 17735.680812573697 12928.781915551685 -999759.1170998615
 16311.197200944813 11881.649442858707 -999796.36489256599
 15083.918227029677 11173.801232087892 -999823.79526441859
 14020.379486170312 10763.212082486414 -999843.7789098511
 13041.150561227863 10614.016508284827 -999858.62552943022
 12050.151025160652 10720.460117745624 -999869.92433772841
 10960.157010230785 11108.214035042314 -999878.23385613423
 9715.9502404045525 11818.097771813173 -999882.95958876214
 8304.9265924070332 12865.691942567833 -999882.74420810665
 6682.7444101898254 14217.03429869611 -999876.60081776988
 4613.4913311333776 15945.496687715298 -999862.21892474731
 1921.1236399369859 18026.293706334221 -999835.66750700248
 -1378.3605514789474 20251.974258420152 -999793.95760367869
 -5329.5298412519232 22632.061732044527 -999729.65640388406
 -8752.0743309634145 23758.447045161898 -999679.41730782262
 -0 -0 -0
 0 -0 0
 -0 0 -0
 -0 -0 -0
 0 -0 -0
 0 -0 -0
 0 0 -0
 0 -0 -0
 -0 0 -0
 0 0 -0
 -0 0 0
 -0 0 0
 -0 0 -0
 35315.400266978148 22020.065534665708 -999133.5942794797
 32175.39453946719 20201.79352903966 -999278.05516004388
 28187.199668599587 17480.113793591368 -999449.81234507496
 24651.104413901652 14826.972824681034 -999586.15633072413
 21854.151581924405 12611.772718160842 -999681.61894052022
 19691.871425260331 10795.832638054615 -999747.80829838396
 18023.142275078804 9349.5560621582008 -999793.85482406977
 16693.928894276822 8243.6013495554835 -999826.6628645499
 15591.100067099973 7431.4350416357183 -999850.83456079569
 14656.561447426142 6880.3859310264806 -999868.91415623983
 13841.612031548257 6558.1522869867431 -999882.6933270467
 13088.23167891399 6442.1479020994911 -999893.59279971709
 12333.60751978712 6528.0438538132676 -999902.62864390481
 11518.60132303988 6829.5842372474517 -999910.33528147265
 10592.845681098792 7370.4446235373989 -999916.73061631864
 9507.6544775834736 8171.843739216748 -999921.40964989678
 8182.5266197523651 9254.2642448551887 -999923.69951481966
 6469.1066451604365 10672.844343725979 -999922.1174935716
 4207.9094845464033 12476.106139323441 -999913.31637965981
 1258.994494012177 14691.188271133147 -999891.28605066182
 -2474.8775974920436 17358.888252303725 -999846.2601717934
 -6588.6296770427771 20088.324608990904 -999776.49961047934
 -9722.3001787597186 21803.269942289604 -999715.00653889251
 0 -0 -0
 -0 0 -0
 0 0 0
 0 0 -0
 0 -0 0
 -0 0 0
 -0 0 0
 0 -0 0
 -0 -0 -0
 -0 -0 -0
 0 0 0
 36408.461708179086 20610.652617096148 -999124.42914520984
 33273.816327363318 18420.428630075243 -999276.50875826017
 29217.935112264837 15348.735402349404 -999455.21589980437
 25467.379724977178 12493.756603370506 -999597.57833634201
 22427.427065294352 10137.648537676308 -999697.07341642119
 20090.59743319295 8280.8943764777669 -999763.86946273618
 18315.983731281853 6830.4910709270462 -999808.91630935413
 16959.156510435638 5709.8477292951729 -999839.87950539496
 15896.475074329595 4863.3426587036911 -999861.81544171134
 15036.478111050183 4246.4982330741841 -999877.92833864095
 14318.177226552782 3826.7689549171996 -999890.16678847
 13693.979919655696 3579.4324677132636 -999899.82627119648
 13118.714594522313 3489.2608733800712 -999907.85794789344
 12547.43006014917 3552.831250377139 -999914.96607911238
 11935.978440101337 3778.0548588505708 -999921.62628886127
 11239.643501312177 4181.2289212632641 -999928.09128390404
 10405.889167548681 4784.5195030329696 -999934.41077090544
 9359.6419638362531 5619.7786532076634 -999940.40581936599
 7991.5110116843116 6739.2501400981891 -999945.3576367558
 6167.7501609398178 8211.1265015475856 -999947.26673936541
 3740.8958440861056 10120.233180504034 -999941.7915952187
 582.83484304737124 12560.154973360268 -999920.9482807084
 -3262.6384226970686 15496.266950292795 -999874.60258830863
 -7339.0285113082309 18551.455018438675 -999800.97128238936
 -10413.805692498141 20550.418711477239 -999734.58124733379
 0 -0 0
 0 0 0
 0 -0 -0
 0 -0 0
 0 -0 -0
 -0 -0 0
 0 -0 -0
 0 -0 0
 0 0 -0
 37790.405409030071 19523.060556908134 -999094.95813236525
 34453.139264026046 17233.465612639226 -999257.71893832856
 30226.858984165887 14002.115302314993 -999444.98486060358
 26307.994566816331 10979.888036596965 -999593.58315296122
 23080.938167157372 8505.0808918780858 -999697.4211691987
 20569.759132301468 6574.4415042880955 -999766.80367380974
 18665.765976341521 5094.9442196913496 -999812.79783963307
 17230.041235940709 3965.2001419837757 -999843.68921689037
 16138.415035415284 3106.7781321844327 -999864.94062437373
 15291.746965285545 2464.1052099942863 -999880.03813470737
 14616.290924980956 1997.5228440902754 -999891.18105025997
 14058.911445695241 1679.2168009932554 -999899.75859577919
 13578.427087469065 1490.1552981217928 -999906.69852492644
 13138.830270687384 1419.431569123647 -999912.67436368612
 12705.842810999906 1464.4129713021673 -999918.20518135966
 12244.868207196116 1630.3922399894966 -999923.69960099086
 11718.108967798888 1929.9016892222423 -999929.47821418336
 11079.300272755087 2383.0446304795405 -999935.78303996846
 10266.206050897887 3020.5507900736425 -999942.73900371173
 9194.3902136396136 3888.9406478711976 -999950.16842302529
 7756.5886763764584 5053.1490968823118 -999957.1495900763
 5825.2802582221584 6599.1710486377342 -999961.25777521182
 3267.2629729414816 8627.6533249557087 -999957.44338985253
 -6.9460560492064962 11207.741104743434 -999937.19127307262
 -3948.5604778647066 14280.413275855208 -999890.23330904858
 -8150.2620168035082 17418.821554457343 -999815.06184129429
 -11419.944878389462 19418.623458786748 -999746.21875851101
 0 -0 0
 0 -0 0
 0 0 -0
 0 0 -0
 0 0 -0
 0 -0 0
 -0 0 -0
 40035.136955989205 18238.999025807079 -999031.79465092684
 36187.521676812161 16158.726892635052 -999214.37080343254
 31552.223619184959 13003.245843668325 -999417.51674773754
 27325.00010842154 9961.5349648949868 -999576.96661648701
 23859.616008053603 7429.0679817976707 -999687.71507549798
 21154.94766619357 5444.353807579344 -999761.38513190183
 19097.97814146696 3927.7981660513192 -999809.90174756455
 17552.205502897032 2779.2913474213606 -999842.08534227544
 16391.472084932928 1910.9835394496563 -999863.82462053339
 15512.315818270434 1256.4935529468844 -999878.88730681047
 14834.921241942313 768.75758869612787 -999889.66097440722
 14299.863679097054 415.02373452847701 -999897.66559086367
 13863.161282403433 172.92712648766735 -999903.8868088607
 13490.651885508807 27.886642339673948 -999908.99662621261
 13153.331188598426 -28.114378591012599 -999913.4908021919
 12824.123609109984 3.0132755663247677 -999917.7675412005
 12475.358709259504 125.24355456121646 -999922.17184095236
 12075.953900101942 348.52426117540392 -999927.02227124642
 11587.647240079077 689.68237045239573 -999932.62311501114
 10960.357624946007 1174.6450523932642 -999939.2435391933
 10127.705005766735 1841.6525924099813 -999947.01754995226
 9003.7840123166225 2744.2619798970209 -999955.699468554
 7481.2609263992545 3953.6645292892185 -999964.19899501465
 5433.6336057158169 5556.1014276051119 -999969.80222542991
 2727.9258371733131 7635.9411131324669 -999967.12487158482
 -743.21607541824574 10234.758145527971 -999947.34729162999
 -4971.1023955663604 13249.868791525321 -999899.85954493482
 -9585.4809352663397 16205.087338320045 -999822.74113944662
 -13393.660990873879 17872.88659280791 -999750.55377334112
 0 0 0
 0 0 0
 -0 0 0
 0 -0 0
 -0 0 -0
 43574.612025757677 16024.009639661135 -998921.66074316006
 39009.561308347984 14746.292085321884 -999130.02206733054
 33616.836261822849 12012.695743603314 -999362.59859007981
 28805.438218656611 9146.4898182693269 -999543.18988877907
 24925.239439194978 6665.7358087892035 -999667.09478957346
 21927.812901257774 4679.396740809535 -999748.60553416586
 19660.473476655039 3145.9615368451168 -999801.76470572501
 17963.540586864518 1981.5551234060774 -999836.67898756184
 16698.065778449884 1102.5626133163128 -999859.96967322484
 15751.722210161703 439.8755988883226 -999875.83717023162
 15037.679915464232 -58.44552931606615 -999886.92599057418
 14490.689005762348 -429.45688734831231 -999894.91222774005
 14062.405123817503 -698.86575341489765 -999900.87526153913
 13716.749848680143 -884.01607469697296 -999905.53018231108
 13425.646366930747 -995.95042977933406 -999909.37594482605
 13165.502722007566 -1040.573506507669 -999912.78956959746
 12914.479375257541 -1019.1996168085938 -999916.08520645718
 12650.1666820597 -928.69521224371897 -999919.55216813274
 12347.184450972325 -761.22098006492854 -999923.48086178734
 11974.338195281711 -503.39198714251376 -999928.17833147012
 11491.242615314919 -134.730965601772 -999933.96441501216
 10844.565548386254 374.45536686588258 -999941.12585754029
 9964.0272335714471 1065.3248619765304 -999949.79036160966
 8758.087491401302 1992.2602484939919 -999959.6625877443
 7109.9281115042695 3222.1921022862025 -999969.53273602563
 4875.5406233130452 4827.7600048184413 -999976.46064143244
 1888.7838551786028 6868.3585934587663 -999974.62875103974
 -2008.5042801173533 9342.7730113440921 -999954.3382090081
 -6859.9935623856018 12076.68460876417 -999903.54243656143
 -12286.395814191901 14476.070712876928 -999819.72767825145
 -16840.994342188176 15213.770634578203 -999742.4278746224
 0 0 0
 -0 -0 -0
 0 -0 -0
 0 0 -0
 41884.092533309893 12983.780637612999 -999038.10949984053
 36622.049313496813 10920.993102962339 -999269.51190043078
 31062.075584744834 8382.6217111533515 -999482.30555303744
 26516.575198741746 6051.935837021535 -999630.05422623921
 23041.158843779998 4124.7524794018545 -999726.00817229878
 20444.869123114862 2607.5108143408042 -999787.58154614596
 18522.045151516009 1442.4137087793624 -999827.41174969694
 17101.282017547277 558.23198923349514 -999853.60654968
 16049.678686744601 -109.88115839998396 -999871.1895740286
 15267.121985262409 -614.15458871219118 -999883.26208634384
 14679.405215919092 -993.79350259026171 -999891.75786031003
 14232.027029518056 -1276.9340960709676 -999897.90421119786
 13884.966405857072 -1483.135055687977 -999902.49925595964
 13608.365001198646 -1625.5301285180465 -999906.08061647241
 13378.98986733713 -1712.3702426421523 -999909.03107146791
 13177.401251146286 -1747.9745707918 -999911.64643740712
 12985.671794438991 -1733.2050636862436 -999914.18048163236
 12785.398025963434 -1665.5795921560366 -999916.8762661923
 12555.695536816038 -1539.0313561531175 -999919.9897452154
 12270.918675780737 -1343.2788284652304 -999923.8071757477
 11897.907531394785 -1062.7641061193094 -999928.65261919016
 11392.606441931192 -675.23763486872326 -999934.87416561064
 10695.812181952773 -150.1769513271939 -999942.78688765597
 9727.6973233066037 552.56303910623296 -999952.53216283908
 8380.848200599643 1482.9695637672908 -999963.78043642757
 6512.1085339478823 2698.2312643037412 -999975.1556866233
 3935.6878425551281 4254.0350076814557 -999983.20663267106
 428.31892165508054 6182.288602342157 -999980.79774090601
 -4214.8700894744952 8439.0000028766099 -999955.50808477507
 -9928.1655646888576 10787.902321504034 -999892.52057009714
 -15341.265134477129 12568.827062363625 -999803.31574282632
 -0 0 -0
 -0 -0 -0
 0 0 -0
 45880.946974058199 11002.103572729959 -998886.32607606484
 40731.797788237833 9950.4541703550331 -999120.56785492203
 34391.775480998615 7730.8887560839139 -999378.52645446884
 28910.767422718491 5548.8635647268147 -999566.59490009432
 24702.010715329605 3700.3293979742589 -999688.01044574205
 21590.952289982695 2220.6066183132243 -999764.42209425441
 19318.388558164686 1070.1941841492858 -999812.80975386791
 17661.411970055666 189.80662705113431 -999844.00708343904
 16450.167940739007 -478.85647792687632 -999864.57216524822
 15560.246139875724 -985.41100595418402 -999878.44646497688
 14901.759884092302 -1368.9074574981848 -999888.02555322647
 14410.041676542149 -1658.5255972173793 -999894.79446175927
 14038.511360333601 -1875.2497981851791 -999899.69678812299
 13753.327795071358 -2033.691295673558 -999903.35036656179
 13529.353302874488 -2143.6331310198921 -999906.17631666106
 13347.071181024263 -2211.1676166073626 -999908.4790262857
 13190.191079740207 -2239.4213203713266 -999910.49792040372
 13043.7212636083 -2228.9398287228282 -999912.44274828234
 12892.272153054015 -2177.7786679705514 -999914.51964595728
 12718.360292577678 -2081.3334822193301 -999916.95223273605
 12500.477635696603 -1931.8914437528538 -999919.99972714251
 12210.69738189656 -1717.9104433751775 -999923.97093636892
 11811.533785664213 -1423.0408549871893 -999929.22880789672
 11251.679714276795 -1024.9831507833649 -999936.17251960014
 10460.095096131732 -494.34456779935329 -999945.16951382288
 9337.8666147653075 206.11462890062847 -999956.379930567
 7747.511776438645 1121.1386358845475 -999969.35908528371
 5500.923855448159 2300.1406365336265 -999982.22443690908
 2352.9601729575083 3788.8798962612968 -999990.05393431592
 -1972.3208361794643 5608.7241924676391 -999982.32592553936
 -7627.2261371628738 7701.4894199155424 -999941.25451556768
 -14064.235804376278 9729.8188431763065 -999853.75325420359
 -19070.036875169277 10390.427932973862 -999764.15853987727
 -0 -0 0
 0 0 -0
 44447.968892247081 8554.5249768556459 -998975.07384507544
 38668.179104664501 7108.3947353039594 -999226.8224227255
 32307.165691343293 5160.1794815321846 -999464.66650538018
 27135.939655288788 3385.4917040638657 -999626.01968183415
 23278.112507544214 1939.5124772519293 -999727.14666024584
 20479.945779601268 807.35916539770506 -999789.93793298549
 18465.194950829602 -63.495721744398146 -999829.50173703197
 17012.704907569179 -727.66299583174634 -999855.00867790461
 15960.231485490604 -1232.4861762017877 -999871.86778544518
 15192.32353007556 -1616.0339089179179 -999883.28405877575
 14627.595028812326 -1907.5128170603218 -999891.19150961924
 14208.672580264632 -2128.5331197043488 -999896.78615858394
 13894.863271691696 -2294.5973675966979 -999900.82888133533
 13656.90655029299 -2416.4864437364654 -999903.82012308738
 13473.198788697437 -2501.3970961172786 -999906.10355521273
 13327.023055322848 -2553.773382346852 -999907.93011056504
 13204.456641932631 -2575.8556942604509 -999909.49955095106
 13092.697858329517 -2567.9743911914002 -999910.98942371702
 12978.597791482251 -2528.6347341700216 -999912.57718149957
 12847.183722945985 -2454.3996503107237 -999914.4592377618
 12679.96520118363 -2339.5853167922687 -999916.86895613605
 12452.772551834161 -2175.7531532309231 -999920.09408451675
 12132.821449939962 -1951.0113887057885 -999924.49124832673
 11674.572080633172 -1649.1255723542279 -999930.48995996744
 11013.817748917498 -1248.4889769872739 -999938.56665990641
 10059.319127132807 -721.03504386093948 -999949.14381040575
 8681.4685538214108 -31.318054570940351 -999962.31485137902
 6698.6120427698306 863.70002433601815 -999977.19104935997
 3866.1100319949346 2012.4109893272926 -999990.50165250595
 -112.01403550096784 3457.6627297761511 -999994.01599274739
 -5482.2064751798516 5193.5870881922765 -999971.48562612548
 -12046.039076758721 7014.6594502910293 -999902.83902755147
 -17911.056308018073 8213.6728570279247 -999805.84597217094
 0 0 0
 -0 -0 0
 42559.057841315938 6599.278232295319 -999072.15761549072
 36652.94583461414 4918.4851289810886 -999315.95107137179
 30540.476194152085 3182.1089792208159 -999528.46557578293
 25715.799610314727 1742.8962913686476 -999667.77479466656
 22173.834885332206 618.07218310803285 -999753.93924367952
 19633.615835569719 -244.1389389256903 -999807.21217912796
 17821.608377542598 -900.5911947148935 -999840.7769291756
 16525.817767571956 -1399.505328439931 -999862.45990733569
 15593.486882738536 -1778.9856519652787 -999876.83160321706
 14917.528698329967 -2068.1855124893432 -999886.58854203077
 14423.524054981523 -2288.8804332937243 -999893.35580360633
 14059.707767770597 -2456.9693651440471 -999898.13877165702
 13789.784139779875 -2583.7837640321227 -999901.57811398548
 13587.887702371025 -2677.1750744699325 -999904.09642195597
 13435.038939893155 -2742.3579319618589 -999905.98518143501
 13316.609033574208 -2782.5273138238817 -999907.45845082821
 13220.437027062704 -2799.2617606281087 -999908.6879202564
 13135.343586128005 -2792.7526425461569 -999909.82757524296
 13049.824772564105 -2761.8711695960346 -999911.03311297053
 12950.737347668997 -2704.0992665289309 -999912.4792947172
 12821.767082785167 -2615.3132483277841 -999914.37754714151
 12641.445595705303 -2489.4261549974494 -999916.99486040801
 12380.397022122754 -2317.8592567014284 -999920.67350267374
 11997.397370250634 -2088.8317727236736 -999925.84686973947
 11433.678262061409 -1786.4195880424027 -999933.03761124681
 10604.809406564014 -1389.3514338370667 -999942.80222422909
 9389.5868832787455 -869.49213866393643 -999955.53883239359
 7616.2582256871628 -190.11066652555587 -999970.97781314352
 5049.7600397104325 695.38003190906761 -999987.00810068147
 1394.5666104351235 1841.0887131539521 -999997.33278460265
 -3636.578965934516 3291.3856213297017 -999987.97096470941
 -10007.152111576032 5011.7239118254747 -999937.36780362797
 -16098.829318928649 6632.9780927465845 -999848.40415744076
 -0 0 -0
 47772.490787239651 5808.0618317843055 -998841.35654354095
 42099.603732788426 4751.6900549372403 -999102.11930871406
 35163.830332203746 3050.1643568850209 -999376.90664421697
 29170.635539279654 1589.5322500216105 -999573.18261819158
 24624.710244755792 461.25385537783416 -999696.65943737293
 21336.598890604706 -392.56344241257716 -999772.27179079375
 18998.586529346019 -1036.7554950003714 -999818.97303858504
 17342.046192853672 -1523.7249925158269 -999848.45436495624
 16164.628111942382 -1893.1894503055016 -999867.55154455721
 15322.336992477718 -2174.7053433833989 -999880.24115178839
 14715.138429243163 -2390.0691594708878 -999888.86996026768
 14274.119573501441 -2555.1975147805697 -999894.85471026495
 13951.764552329694 -2681.5535674127595 -999899.07367510919
 13715.035720980861 -2777.2428432264333 -999902.08756525849
 13540.559660252937 -2847.8467006510964 -999904.26692421734
 13411.284057919511 -2897.0505462588562 -999905.86784859397
 13314.114754204329 -2927.0886661043842 -999907.07893296389
 13238.186491375807 -2939.0441156714123 -999908.05199183477
 13173.50459767529 -2933.0142001837248 -999908.92395473516
 13109.758723101566 -2908.1711334494794 -999909.83431851526
 13035.119000399034 -2862.7134605714155 -999910.94130641862
 12934.827982906438 -2793.7217804325796 -999912.43883835466
 12789.351764987143 -2696.894483381639 -999914.57597215625
 12571.796222550238 -2566.1558159108768 -999917.6790036601
 12244.177056434197 -2393.0838576451097 -999922.17361045699
 11752.016900444751 -2166.1127294129005 -999928.59647797607
 11016.623230778987 -1869.4045192072092 -999937.56772077247
 9924.4849279476239 -1481.284062297776 -999949.65393085766
 8313.9074056711233 -972.10925839560139 -999964.96635994187
 5961.5970156256644 -301.66011252405826 -999982.18402239529
 2579.9564328802394 583.0808664340899 -999996.50191463542
 -2139.657647564698 1745.5029961423677 -999996.18753495335
 -8328.023862485079 3230.3931655164488 -999960.10349340551
 -15292.343636768734 4879.5023397863479 -999871.15904150903
 -20641.866630565179 5616.2360108935618 -999771.15943353553
 47177.492028519358 3135.860888951453 -998881.59990180214
 40970.683391276682 2361.0194967272691 -999157.55949168897
 33932.447920783627 1233.1676059152746 -999423.36788558157
 28136.677443624772 219.20092311461872 -999604.06128296058
 23818.943099439355 -580.25700280834712 -999716.12033188506
 20723.907689033924 -1188.2306889680112 -999784.53066544619
 18536.493821402517 -1647.2560923573226 -999826.82747772627
 16994.521213643595 -1994.6345498906528 -999853.59312337881
 15903.806039009771 -2258.9674217515662 -999870.97468606452
 15127.323858837835 -2461.3372506218757 -999882.5460481887
 14570.456747524855 -2617.0700017459735 -999890.42036353867
 14168.394105558224 -2737.2082271620989 -999895.87672896776
 13876.714848474123 -2829.6238559662315 -999899.70997787977
 13664.719572726179 -2899.8361174266311 -999902.42843464017
 13510.815332958555 -2951.6194924181418 -999904.36833299743
 13399.325832170116 -2987.4431647646834 -999905.76218490757
 13318.257348484351 -3008.7874492192482 -999906.78126477601
 13257.671878394447 -3016.3489082712731 -999907.56361557159
 13208.421106078704 -3010.163966346995 -999908.23405189556
 13161.037975650919 -2989.6491808782816 -999908.9203908419
 13104.615528545226 -2953.5774192174913 -999909.76864529029
 13025.482993186855 -2899.9740794826585 -999910.95950746152
 12905.465628043021 -2825.9381543327672 -999912.72770700918
 12719.43484649922 -2727.3527138824684 -999915.38518234622
 12431.769991250374 -2598.465387207521 -999919.34628374688
 11991.216178459486 -2431.2710102450919 -999925.14702643419
 11323.52811398521 -2214.6393716079265 -999933.43432625837
 10321.308047964354 -1933.0965229747251 -999944.86534909089
 8830.9995939300825 -1565.265524820094 -999959.78088621586
 6639.0454378526993 -1082.2777645891856 -999977.37561932602
 3465.6062152187519 -447.73515444468143 -999993.89453475806
 -1007.3349141445671 374.7690309978853 -999999.42241210549
 -6995.4336862819537 1385.1747161509825 -999974.57227598887
 -14150.251697854015 2423.0101495832946 -999896.94438912161
 -20298.156034935266 2985.8418809370878 -999789.51265246002
 46520.96483394174 726.17768717813635 -998917.04985793796
 40119.348254763456 296.29352314167494 -999194.8509203603
 33090.415455401548 -335.43108794461779 -999452.3059611069
 27432.578750436813 -942.4660810621549 -999623.2117056842
 23268.552942145838 -1442.8236662645779 -999728.20941686281
 20304.716046850681 -1832.5634997236903 -999792.15850959555
 18220.305700649948 -2130.943269158689 -999831.72561234422
 16756.996284807785 -2359.1370385669825 -999856.8085220725
 15726.030466751647 -2534.5423080386927 -999873.12598201574
 14995.135827528447 -2670.2471721886654 -999884.0011129058
 14473.392399226692 -2775.7784791744302 -999891.40208639309
 14098.770668345207 -2857.9643883795457 -999896.52299885324
 13828.928730067908 -2921.6328301545 -999900.10740662704
 13634.732436671287 -2970.1399206619817 -999902.63142979681
 13495.779931529047 -3005.7539717091458 -999904.41011483758
 13397.321680269488 -3029.9395551703283 -999905.66116913606
 13328.107553349173 -3043.5535832522301 -999906.5447983786
 13278.830085612766 -3046.9818266013799 -999907.18997980305
 13240.912515469516 -3040.2136590616547 -999907.713409925
 13205.454984626993 -3022.8757011623538 -999908.23488015356
 13162.162219439328 -2994.2130192265636 -999908.8919367129
 13098.081895901327 -2953.0310507562876 -999909.85586614849
 12995.935132531778 -2897.5758752515312 -999911.35093271045
 12831.769709458002 -2825.3539971092191 -999913.67780469649
 12571.556191134619 -2732.8530478113598 -999917.24031999381
 12166.238175574079 -2615.1471151141886 -999922.56882931769
 11544.611123407887 -2465.3368264879259 -999930.31960649206
 10603.39630839133 -2273.83326109463 -999941.19710562378
 9194.2271068658574 -2027.5959540211534 -999955.67653899279
 7108.8409829817456 -1709.8999042242058 -999973.26995385042
 4068.7798199747276 -1302.4252839813767 -999990.87431793893
 -259.00627100887289 -794.56283697879633 -999999.65079276392
 -6153.0585397564946 -210.11346509992487 -999981.0476818739
 -13412.467322464969 341.68578237518619 -999909.99043471401
 -19891.874275456212 653.17958201208216 -999801.92373001715
 46053.432319370761 -1118.0910605369481 -998938.35207383323
 39602.49242547778 -1333.2993809141606 -999214.62404553045
 32598.870645436298 -1633.5119890193857 -999467.18068740214
 27019.598051929264 -1927.1483049840222 -999633.04638278286
 22942.944969899014 -2175.7963773004708 -999734.40832364711
 20055.137441953411 -2374.4928703566288 -999796.05582628341
 18031.313527329094 -2530.4502637736855 -999834.22053555539
 16614.884622696231 -2652.8058434548038 -999858.4440960288
 15620.037445546805 -2749.3495801203094 -999874.21984321903
 14917.158093621963 -2825.9956674879677 -999884.73942894884
 14417.407619257177 -2887.0420139272678 -999891.89582971914
 14060.319671974263 -2935.5412533118606 -999896.83968311059
 13804.723952828374 -2973.6212815622848 -999900.28861534991
 13622.37240641576 -3002.7263835793215 -999902.70256874815
 13493.546828856774 -3023.8024657507176 -999904.38583527855
 13404.035831247924 -3037.4292470067535 -999905.5484629554
 13343.029280805165 -3043.9211647050247 -999906.34467111679
 13301.594103573289 -3043.3907453607344 -999906.89834957884
 13271.494796164377 -3035.7923884388015 -999907.32140056323
 13244.163569033555 -3020.9354167749639 -999907.72878329351
 13209.659279407166 -2998.482366246345 -999908.25279383583
 13155.435335329481 -2967.9166061214937 -999909.05886093318
 13064.716470459043 -2928.4915246071728 -999910.36454321072
 12914.206635600507 -2879.1390087165919 -999912.46308141458
 12670.768807249351 -2818.3434218245407 -999915.75073012523
 12286.575932986232 -2743.9528360941463 -999920.75224723492
 11692.110406994598 -2652.9346800421072 -999928.12566294696
 10786.302743304914 -2541.0756661232444 -999938.59741865599
 9423.3444317246667 -2402.7444365367114 -999952.7125813968
 7396.922116161827 -2231.0602857283689 -999970.15351119789
 4426.9783713683255 -2019.4579959633231 -999988.16175587918
 168.43001288406705 -1766.7320017944087 -999998.42514344235
 -5690.065789240668 -1488.279034063024 -999982.70393883844
 -12995.751269986145 -1230.9453153943905 -999914.79398124677
 -19585.310141103953 -1069.0695526997854 -999807.61785303883
 45824.119805533184 -2678.8653079179403 -998945.93133197667
 39380.862012325255 -2739.702330766429 -999220.51707233523
 32405.290618970754 -2784.2542680193551 -999470.93257786706