# OOMMF OVF 2.0
#
# Segment count: 1
#
# Begin: Segment
# Begin: Header
#
# Title: Oxs_TimeDriver::Magnetization
# Desc: Oxs vector field output
# Desc:  MIF source file: /mnt/gpfs/work/plgrid/groups/plggspinsym/MF/switching-obrazki/p-ap/Anisotropy.mif
# Desc:  Iteration: 11200, State id: 78550
# Desc:  Stage: 0, Stage iteration: 11200
# Desc:  Stage simulation time: 1.64744e-09 s
# Desc:  Total simulation time: 1.64744e-09 s
# meshunit: m
# meshtype: rectangular
# xbase: 1.0000000000000001e-09
# ybase: 1.0000000000000001e-09
# zbase: 3.4999999999999998e-10
# xnodes: 35
# ynodes: 35
# znodes: 5
# xstepsize: 2.0000000000000001e-09
# ystepsize: 2.0000000000000001e-09
# zstepsize: 6.9999999999999996e-10
# xmin: 0
# ymin: 0
# zmin: 0
# xmax: 7.0000000000000005e-08
# ymax: 7.0000000000000005e-08
# zmax: 3.4999999999999999e-09
# valuedim: 3
# valuelabels: Magnetization_x Magnetization_y Magnetization_z
# valueunits: A/m A/m A/m
#
# End: Header
#
# Begin: Data Text
 -0 0 -0
 0 0 -0
 -0 -0 0
 -0 0 0
 0 0 0
 -0 0 -0
 0 0 0
 0 -0 0
 -0 0 0
 0 0 0
 0 0 0
 -0 -0 0
 0 0 0
 27427.393316017948 17460.008723437935 -999471.30333555129
 26434.738281389615 16585.275465716339 -999512.94801504246
 25461.85414586691 15591.88069678274 -999554.19424851192
 25135.790047533759 14828.040612062257 -999574.06992693315
 25349.362063328888 14393.31469294829 -999575.03086818429
 25813.271414336432 14300.198644417431 -999564.49483643612
 26152.842006832911 14529.335492846818 -999552.36344330769
 25866.222863779782 15021.060237824177 -999552.55302764988
 24500.055489367591 15573.72370857026 -999578.5143803698
 0 0 0
 -0 0 -0
 -0 0 -0
 -0 0 0
 0 -0 0
 -0 0 0
 -0 -0 0
 0 0 0
 0 -0 0
 0 -0 -0
 0 -0 0
 -0 -0 0
 0 0 -0
 -0 -0 -0
 -0 -0 -0
 -0 -0 -0
 -0 0 -0
 0 0 -0
 0 0 -0
 -0 -0 0
 0 0 0
 0 0 -0
 0 0 0
 26673.90418094596 20214.584396033188 -999439.77978337498
 25426.856470876446 19057.568127008373 -999495.01452838362
 25129.351744973384 17158.722680322044 -999536.93974602898
 25875.440576271612 15136.934496550566 -999550.56639923481
 25473.532023591888 13042.222770583459 -999590.41591616184
 24987.185852369981 11492.000506096918 -999621.71568426199
 24969.64376156019 10477.123587457312 -999633.30615368835
 25392.375940569531 9894.9140055692678 -999628.5899877589
 26026.967075288172 9672.6277838669739 -999614.44430171
 26549.604199423062 9768.6311126181663 -999599.76608792751
 26539.222325425158 10178.882271629753 -999595.94838817848
 25637.02480644358 10965.999405597377 -999611.16931340366
 24684.443887498313 11830.291438812288 -999625.29101380648
 23855.514201094178 14259.029093125306 -999613.72266066994
 22293.910365766526 16230.704177740065 -999619.70058742748
 -0 0 -0
 0 -0 0
 -0 0 -0
 0 -0 -0
 -0 0 0
 -0 0 0
 -0 0 -0
 -0 0 0
 -0 0 -0
 -0 0 0
 0 -0 -0
 -0 0 -0
 -0 0 0
 -0 0 0
 -0 -0 0
 0 0 -0
 0 -0 -0
 -0 -0 0
 28905.011553791868 21636.215679896461 -999347.97467054892
 27248.071916842106 20334.642684483097 -999421.85531621694
 25857.445589294213 18220.635777133244 -999499.57525727514
 24361.648954448887 15752.650778525842 -999579.09344567137
 23685.888898697962 13343.886204198934 -999630.39137875743
 23780.605011410084 10950.823568476757 -999657.22239598876
 23815.238795572135 8750.1120728067363 -999678.08315468393
 23932.467500801893 7078.1211698420866 -999688.52009014692
 24359.210898181595 5943.8180165048789 -999685.60051238327
 25090.019467690348 5245.5726987515554 -999671.43346710317
 25967.772740826476 4899.1778072347352 -999650.77543894981
 26748.748245302435 4868.3243005460081 -999630.33361628954
 27140.876912944968 5190.8313051608329 -999618.14112727961
 26944.568214753344 6016.213438467641 -999618.82506262534
 26396.740510737891 7476.6051242813419 -999623.58538913226
 25559.931261204052 9682.7211005709414 -999626.39762363769
 23858.399552910687 12036.655105729929 -999642.88408643194
 21577.566215641225 14049.676248999744 -999668.45265493286
 18885.660765965677 16522.21201918694 -999685.12459045136
 -0 0 -0
 -0 -0 -0
 0 0 -0
 -0 0 0
 -0 0 -0
 0 0 -0
 0 -0 -0
 -0 -0 -0
 -0 -0 0
 0 0 0
 0 0 0
 0 0 -0
 -0 0 0
 0 0 0
 -0 -0 -0
 30359.451086716956 21791.856524901596 -999301.46538415074
 28352.727149596209 20075.377705953415 -999396.36885128997
 25746.199611294243 17437.892758494891 -999516.40962103195
 23756.593515463675 14596.099276283014 -999611.21349775686
 22375.857735231319 11867.049456920138 -999679.19560617034
 21755.019984957489 9437.2911613315136 -999718.78878062021
 21789.81034279598 7245.6863412316743 -999736.31733306043
 22134.773681177165 5326.4873234359866 -999740.80657282181
 22707.210283685785 3802.1595004716269 -999734.92796053959
 23530.419202971101 2692.8803129811213 -999719.49454222026
 24567.65666307955 1948.6887186004847 -999696.27030331723
 25701.246452675299 1517.4411906428484 -999668.51671092026
 26755.636549719169 1382.0758896016321 -999641.04846642574
 27535.10102623397 1584.8220738669488 -999619.58091589471
 27903.425690073735 2232.3716272456559 -999608.13089514046
 27863.454485441453 3418.6397160749548 -999605.89274304989
 27338.778237154758 5143.6616829829954 -999612.99208693288
 26024.491099713792 7275.0594071675114 -999634.8330133477
 23810.401515782705 9767.4288140861136 -999668.77620240743
 20581.134110076237 12530.62519112362 -999709.6580263006
 16975.658893075401 14235.024640459043 -999754.56542024913
 -0 -0 -0
 0 -0 0
 -0 0 -0
 -0 -0 -0
 0 -0 -0
 0 -0 -0
 0 0 -0
 0 -0 -0
 -0 0 -0
 0 0 -0
 -0 0 0
 -0 0 0
 -0 0 -0
 30654.152357596078 22965.367438767749 -999266.18818092695
 28894.096520976254 20708.879412016904 -999367.93699804822
 26007.056579309177 17507.165800692612 -999508.44526382466
 23295.358625153865 14304.667027969885 -999626.28155113291
 21372.805531189861 11419.368652771194 -999706.3574886868
 20246.870054277832 8888.6311408824149 -999755.49835419573
 19847.438968001152 6705.1758414739397 -999780.53580940783
 20040.033322857438 4809.6122564234138 -999787.60979238083
 20635.67048685145 3183.360219076118 -999781.99389730638
 21522.868977575588 1853.3983013886345 -999766.63828400976
 22646.068538507454 826.69891191329509 -999743.20310200576
 23940.709621373924 82.794992347132577 -999713.37670745107
 25306.346036146551 -401.21878309361159 -999679.66262887779
 26610.603252113087 -627.21314764853878 -999645.67842722451
 27711.295115410849 -562.03184388510283 -999615.81032076175
 28491.543470638531 -142.48213517045284 -999594.0234162577
 28872.153287468376 686.56416221264544 -999582.87670117489
 28733.876778314734 1940.1434789441353 -999585.21406059724
 27870.079574139785 3610.9401359155668 -999605.03188802802
 26077.50892018824 5726.4476421692052 -999643.52212472179
 23124.515639509886 8294.1302655700183 -999698.18654410681
 19027.331673670498 11085.094378302405 -999757.51126560883
 14974.630047582119 13369.366517977156 -999798.48994377174
 0 -0 -0
 -0 0 -0
 0 0 0
 0 0 -0
 0 -0 0
 -0 0 0
 -0 0 0
 0 -0 0
 -0 -0 -0
 -0 -0 -0
 0 0 0
 30818.612031085591 24420.302223275339 -999226.63194682798
 28989.239120204151 22031.156294514694 -999336.9062371098
 26033.981798827183 18556.202497717022 -999488.81891723117
 23055.63679147268 15038.594346724058 -999621.067351131
 20672.821202407154 11935.791922800945 -999715.04506769753
 19095.490421394643 9311.226771456304 -999774.30618193874
 18286.0753517538 7096.2348773968479 -999807.61294300749
 18140.448147590541 5214.546865119768 -999821.85045236733
 18533.857699859873 3599.6629076895538 -999821.75338692858
 19335.836982550649 2215.8249408553702 -999810.58982590074
 20444.707214091326 1055.7693031094 -999790.42768877745
 21784.046954361333 116.45119872456624 -999762.69271132955
 23278.044363960802 -610.26136291924297 -999728.84335286566
 24835.216388322096 -1130.7269514684115 -999690.91897621378
 26347.089121741756 -1438.8833840944665 -999651.81963992724
 27698.163418868873 -1510.2102421544109 -999615.1914653189
 28779.34266476606 -1306.3730300973236 -999584.9352732813
 29487.269290817574 -791.23255766750606 -999564.84276949777
 29695.509709225378 59.829074570337681 -999558.98931658396
 29234.440381593591 1273.3597995809373 -999571.77133530343
 27903.575734901511 2901.8746467453188 -999606.40733477753
 25471.594683098119 5024.373225484971 -999662.91995751811
 21783.139570124116 7711.7656215962461 -999732.97609985131
 17092.247523221846 10871.580360806316 -999794.8108562394
 12692.887969028734 13597.22640532797 -999826.98804797628
 0 -0 0
 0 0 0
 0 -0 -0
 0 -0 0
 0 -0 -0
 -0 -0 0
 0 -0 -0
 0 -0 0
 0 0 -0
 31477.998141024109 25581.487703414554 -999177.02291431499
 29312.815023306182 23354.460851175743 -999297.41720558866
 26099.77835306737 19931.154591288188 -999460.62986321736
 22893.806503776053 16364.399333178928 -999603.96160591126
 20222.102584580112 13161.430519757163 -999708.87928122981
 18279.223955686542 10456.727194344274 -999778.23882497102
 17089.731142326396 8211.093648462449 -999820.24335906457
 16587.373079630586 6333.763590499223 -999842.35882117786
 16675.426714005313 4740.3574961774075 -999849.71828506037
 17251.23765573624 3367.449817884537 -999845.51560782082
 18215.603044359537 2177.068805402515 -999831.71192813583
 19481.795004218271 1152.3946748919609 -999809.54768892191
 20973.382629199783 286.83887672931041 -999779.99327079381
 22613.90393052169 -422.42555814974122 -999744.18373185315
 24318.374491040759 -973.88350908770258 -999703.79023640009
 25991.377513423351 -1358.1557282686606 -999661.24447633373
 27530.875571164815 -1556.2009230499702 -999619.74226651411
 28832.979153599172 -1542.1185513827945 -999583.0536696295
 29790.14489629438 -1289.1619374077725 -999555.34380471252
 30279.669573341376 -771.17584095785844 -999541.16818585899
 30153.369707755483 46.414899688586353 -999545.28268654458
 29235.387454845106 1221.9649595042499 -999571.80778671568
 27324.521929447397 2850.0880846918562 -999622.55251631688
 24235.349012400657 5061.0223648620304 -999693.46997510665
 19915.735058550978 7960.4540655107776 -999769.97087737569
 14699.881916329939 11373.685237708471 -999827.26145857794
 9920.0925533710688 14273.791410563814 -999848.91390774667
 0 -0 0
 0 -0 0
 0 0 -0
 0 0 -0
 0 0 -0
 0 -0 0
 -0 0 -0
 33208.915780776661 25885.747930068057 -999113.15473612212
 30427.197576822466 24163.145183797104 -999244.87892730685
 26699.258757464755 21090.119556324487 -999421.01060509111
 23090.07017456496 17736.350487806329 -999576.04539660073
 20079.942168497138 14640.739209278414 -999691.17465241032
 17806.069511395141 11979.879117925691 -999769.68667032279
 16269.363193975476 9758.7731374375126 -999820.02088781691
 15416.756214919587 7911.6919679283992 -999849.85310696252
 15171.403823848745 6356.3998975893401 -999864.70319056441
 15449.927042296586 5020.913629639479 -999868.0363831576
 16170.148714315057 3852.138050849645 -999861.83411659137
 17253.848219413314 2816.8424540944911 -999847.17338211741
 18627.978126414906 1898.1828490128792 -999824.68229824852
 20222.269766183425 1089.923091333656 -999794.91490663146
 21964.083615684838 392.1872920125449 -999758.68349319731
 23773.967015789662 -189.81495043313248 -999717.34128333337
 25564.229625565415 -645.41881281494466 -999672.97332588094
 27240.33905936711 -958.56386560125054 -999628.45351822919
 28702.785039360122 -1109.3839829791325 -999587.37456920836
 29846.20815692945 -1076.1756887235051 -999553.92336008581
 30554.757725546522 -834.34949475371479 -999532.74615755014
 30696.785652522671 -349.92983905056616 -999528.68137923442
 30121.46091387159 431.26572742862908 -999546.15281250875
 28658.868336042899 1595.113631793547 -999587.97755785333
 26133.816684209607 3264.1958748489578 -999653.12416398048
 22405.281725222991 5575.7863078094442 -999733.42144686915
 17457.273537557645 8587.9078221842938 -999810.727807955
 11645.778270761748 12033.005704010859 -999859.78148048092
 6324.6589490725237 14787.332615907515 -999870.65837701433
 0 0 0
 0 0 0
 -0 0 0
 0 -0 0
 -0 0 -0
 36375.1835840317 24549.442482072172 -999036.62139735778
 32902.3607089773 23956.471073643068 -999171.41780250834
 28354.428313116528 21647.241221181597 -999363.50911094807
 24054.934056199734 18776.613579545628 -999534.29102259222
 20508.702919495372 15988.511678970384 -999661.8231176238
 17803.628103751624 13523.783869627665 -999750.03780754667
 15887.169213381652 11431.245653879987 -999808.44389172154
 14674.688389933659 9677.9241470260658 -999845.4837147902
 14081.817267823193 8201.2308788272676 -999867.21230096754
 14030.527323556042 6935.4260347472582 -999877.51458303106
 14449.272637999286 5824.6950956707933 -999878.63835931371
 15271.583272824062 4827.8875484176397 -999871.72689608589
 16434.251923842166 3918.7683583534704 -999857.26912307681
 17875.447189944971 3083.7737183040927 -999835.46582796006
 19532.059748862332 2318.6939221276248 -999806.54243731708
 21336.496141237687 1625.8479191716938 -999771.02906163398
 23214.147765535119 1012.4610304686405 -999730.00268381566
 25082.515239420958 489.85805724488074 -999685.26420486358
 26851.927065005642 72.701016131691901 -999639.41935452784
 28426.735455859955 -222.01452129046137 -999595.85404346057
 29705.528321198453 -375.44651253038137 -999558.62290666823
 30579.70953023083 -365.31388114351188 -999532.26456718985
 30931.124514706029 -161.1275820214795 -999521.5053084942
 30629.528488470252 283.35429585851728 -999530.7657570712
 29530.787264499093 1038.4587201929587 -999563.33176393865
 27478.572493625106 2203.2875657176542 -999619.96457534574
 24313.155592637206 3897.0911174121889 -999696.79560652329
 19897.479673252928 6219.0676792288905 -999782.68313661718
 14201.86224748488 9139.7743692371296 -999857.37564573833
 7572.6028044254408 12228.404483974338 -999896.55555489473
 1467.5986201496396 14135.453019014847 -999899.0124618772
 0 0 0
 -0 -0 -0
 0 -0 -0
 0 0 -0
 35961.630117375069 23058.325961304756 -999087.12070727989
 31400.118276098787 21591.289871847323 -999273.66060249845
 26213.916401720897 19347.929931780505 -999469.10317139782
 21847.344690570662 16998.807695647509 -999616.79360988003
 18501.930265956777 14843.94282083311 -999718.62838398956
 16081.417375620053 12975.294599023699 -999786.49207981396
 14445.262785596538 11389.940230866094 -999830.78750586195
 13471.0448289367 10046.617337185486 -999858.78824526875
 13062.784377116766 8892.7425155125911 -999875.13360162592
 13145.093321345272 7877.809071858911 -999882.5664275781
 13655.772376296991 6959.9387593497286 -999882.53266734933
 14539.807460988934 6108.3753750044443 -999875.6331410798
 15744.904670770824 5303.5649227185795 -999861.97556263674
 17218.088759005896 4535.8247772742698 -999841.46929054556
 18902.799775822295 3803.3676830676777 -999814.09199655859
 20736.410156238093 3110.3750606319709 -999780.1392610349
 22648.559751449488 2465.4797385521547 -999740.44839190319
 24560.702465426501 1880.6044188464109 -999696.57157630834
 26386.815451142375 1369.9644805548628 -999650.86863748054
 28034.712993830592 949.29053263630271 -999606.49943607219
 29407.166686954839 635.77710703723858 -999567.31355867954
 30402.25217905996 449.53339803654274 -999537.64360436425
 30912.715746473761 417.03099571140837 -999522.00080354721
 30824.242830383897 576.28786442091746 -999524.65399620391
 30012.518833348495 982.5439312293679 -999549.03997787985
 28339.314692491665 1711.7569064096745 -999596.89531883458
 25648.426729169332 2856.8689826735676 -999666.94278941443
 21766.952506031706 4507.7419173898543 -999752.90949384426
 16539.336712168235 6695.6703986628063 -999840.79649663903
 10017.173897806246 9252.8540602951762 -999907.01613642043
 3426.8453783493032 11466.302566864304 -999928.38775394205
 -0 0 -0
 -0 -0 -0
 0 0 -0
 39781.309385693676 22127.626356013177 -998963.37048733095
 35636.833158533853 21534.049497801068 -999132.77437718818
 29809.93087375876 19710.82862677491 -999361.22160915739
 24410.669502934557 17710.042970053353 -999545.13334437122
 20161.977336130713 15861.716491916135 -999670.89615524327
 17038.139408578336 14250.119718516164 -999753.28751322546
 14851.227909297389 12877.170948534433 -999806.79108413134
 13421.855293605666 11711.2069934913 -999841.33812882192
 12613.018496165238 10708.86943308737 -999863.10657003475
 12326.3723462571 9826.0293622124082 -999875.74712648883
 12490.701320974304 9023.3882095254885 -999881.27337485948
 13051.185312279829 8269.2736208110291 -999880.63571394805
 13961.242211288998 7540.7340217066494 -999874.10259808775
 15176.687051406087 6823.5146160001059 -999861.54432422749
 16651.526560571921 6111.2892414707867 -999842.67702824587
 18334.833850309617 5404.4540599814391 -999817.29618165502
 20168.493886060223 4708.7670515188192 -999785.50667991908
 22085.918652184515 4034.0175953297316 -999747.93768195878
 24011.881014978131 3392.7933316240733 -999705.91601907182
 25863.426053875759 2799.4012553471243 -999661.56600389886
 27551.519694326493 2269.1333329098184 -999617.80936338392
 28982.883463573184 1818.2472782675252 -999578.25428676268
 30061.403861910254 1465.0813705592777 -999546.98015372385
 30688.534781683407 1232.5118385896978 -999528.2360931685
 30762.057899770025 1151.5268309617254 -999526.0725862676
 30172.468593154306 1265.1228441805008 -999543.90679108456
 28796.161595684105 1630.9952786511692 -999583.97392703174
 26484.784429027612 2320.4962975416142 -999646.52327244228
 23052.378086059369 3409.9323997467332 -999728.44324126665
 18272.82363950483 4957.7511296425255 -999820.74624403345
 11947.755187544019 6954.4744700842639 -999904.43864942575
 4319.9813130017037 9185.294965188994 -999948.48273191438
 -2638.2719315109539 10592.777045330138 -999940.41452262702
 -0 -0 0
 0 0 -0
 39543.2078756685 20711.279295747048 -999003.19199732051
 34458.98140319941 19834.566996104546 -999209.27165070421
 28277.066450766957 18242.586657054133 -999433.64739486249
 22979.22463304178 16633.647270743935 -999597.55752689636
 18940.657615013719 15233.91859256092 -999704.54596016835
 16031.326595628339 14062.073727746108 -999772.60146998416
 14030.985571199013 13083.056920753053 -999815.96559842431
 12750.192059182098 12251.886222936002 -999843.64972051233
 12050.555611773661 11525.249502923427 -999860.96670154261
 11836.44449118935 10864.951416966087 -999870.91737509507
 12041.576371536901 10239.189998381768 -999875.07190981891
 12617.21554533678 9623.1418942069795 -999874.09257964394
 13523.242067976907 8999.1812553285636 -999868.05962622119
 14721.718311816667 8356.7818264298894 -999856.70733733312
 16172.278036529198 7692.0895552483144 -999839.63173170073
 17828.820090983587 7007.1789264934478 -999816.49947260611
 19637.282930807993 6309.0483297109413 -999787.26388580736
 21534.506286169308 5608.4430816815111 -999752.3745434219
 23448.253241259477 4918.6183167576874 -999712.95210864802
 25298.35128598419 4254.2085179201858 -999670.89341047476
 26998.694706911429 3630.4501289128016 -999628.87629158865
 28459.619179841397 3063.0569071837208 -999590.24993170181
 29589.988778193911 2568.9970053388465 -999558.81908894854
 30298.207647720235 2168.2408840934881 -999538.55220536853
 30491.25337549406 1886.2806042312341 -999533.25378052029
 30070.674974902649 1756.9256250054116 -999546.23090625566
 28924.353309937989 1824.5673521099286 -999579.93814380816
 26912.945576063965 2144.7720994896004 -999635.48021919525
 23851.81496927881 2781.6099523022667 -999711.63520724536
 19498.602424130662 3798.6080492242486 -999802.6680702517
 13596.755604165144 5231.0353330925491 -999893.87662210665
 6184.0065896764863 6974.7242329327928 -999956.55469843943
 -1092.186128163883 8400.0018892676017 -999964.12290527788
 0 0 0
 -0 -0 0
 38816.231153158114 19964.228367467771 -999046.91070277395
 33249.128389123172 18704.799999426308 -999272.04800211685
 27034.425904487005 17247.081502885663 -999485.70674904983
 21931.785722539174 15972.757524065024 -999631.86613477767
 18117.572903268057 14942.638696624213 -999724.19751693367
 15398.987696077007 14119.996990283591 -999781.72460939223
 13544.939089633301 13450.021438238231 -999817.79917561437
 12368.467325454892 12882.455043439839 -999840.51896693651
 11736.196999531676 12375.554602363867 -999854.54308527918
 11557.734157273551 11895.553340817782 -999862.44783563388
 11771.996257234094 11415.682718613467 -999865.54210663133
 12335.454009510757 10915.575365955945 -999864.33419179905
 13213.163046098296 10381.02639631843 -999858.81333980162
 14372.194440718506 9803.8934238209022 -999848.6503969949
 15776.853003139437 9181.9129230785438 -999833.37781071803
 17385.239635244347 8518.259095489937 -999812.57878904836
 19146.974837300058 7820.7714795913153 -999786.09156561282
 21002.095608948322 7100.8809182284385 -999754.2145298603
 22881.191097021649 6372.3703670654068 -999717.88219971652
 24706.743341861638 5650.1911952092669 -999678.7744935354
 26395.4310745455 4949.6119941878196 -999639.32623696653
 27860.904843323446 4285.9614897745696 -999602.62130279525
 29016.31001397203 3675.1301307177791 -999572.18207175785
 29775.654982392236 3134.8267078329764 -999551.69112551736
 30052.978488124358 2686.4166958464061 -999544.69717433292
 29758.142036876947 2357.0410285168587 -999554.34936780855
 28787.962531476358 2181.6610914342145 -999583.15990625229
 27011.609534797179 2204.6889320230921 -999632.6886897271
 24250.959871822462 2480.8612726118004 -999702.82397952687
 20264.635310557915 3074.1314935000464 -999789.92506990721
 14776.167485582026 4047.0715538011909 -999882.63615600218
 7715.2884317440694 5404.6829873398074 -999955.63087880134
 450.16076452006962 6852.7669377438115 -999976.41819224064
 -0 0 -0
 43662.802768126159 19932.584881633564 -998847.46168490034
 38909.678841710367 19223.867935016089 -999057.79602285859
 32295.521156311708 17782.544660091244 -999320.15911751438
 26120.384800502805 16509.663525059572 -999522.4642338776
 21237.588182254265 15540.639294893941 -999653.66671588167
 17631.834964862323 14821.664832919974 -999734.68312715471
 15072.989282993944 14280.363585151043 -999784.4148665003
 13330.040670259643 13854.183362061633 -999815.16872825031
 12223.516074580122 13493.72189579396 -999834.23882370314
 11627.364171303225 13160.740589665806 -999845.78776407277
 11457.16839802313 12825.574447533038 -999852.10803017777
 11656.827685916733 12465.235167107716 -999854.35753440089
 12187.281152072548 12062.387808494253 -999852.97368086979
 13017.833172999364 11604.994005984472 -999847.91850240959
 14119.67838724737 11086.315127981954 -999838.85116508836
 15461.083188489763 10504.942518385531 -999825.28528204572
 17003.859537124536 9864.5874045521923 -999806.76066737017
 18701.011961832079 9173.4738636464626 -999783.03622779914
 20495.615279978589 8443.3399773834626 -999754.28969538398
 22321.010965668036 7688.1942509210921 -999721.29323058389
 24102.299075456984 6923.0875052697647 -999685.52557225304
 25758.874564287078 6163.1914377631929 -999649.18619107711
 27207.485302744495 5423.4297512529802 -999615.09550088039
 28365.029581102019 4718.7736969329535 -999586.49364207604
 29150.116137934841 4065.1611396701692 -999566.77875670372
 29482.280829644365 3480.8749913309753 -999559.24217946013
 29277.663773932316 2988.1974294930033 -999566.85073088668
 28439.903325996082 2615.2358039897422 -999592.08302211831
 26845.196507805209 2398.0222077846242 -999636.7264731467
 24321.760691616444 2383.2995794356898 -999701.34132148419
 20629.022665121396 2632.6938912500464 -999783.73278762505
 15459.752061744384 3228.3227138413831 -999875.27922168607
 8552.4324789705224 4272.7573860026887 -999954.29867720115
 231.24647525047055 5804.4535440180762 -999983.12727971701
 -7320.4090981707614 7117.5560096819463 -999947.87464501604
 43945.287164829344 17791.427862322736 -998875.50617212569
 38418.329280997976 17442.485209048005 -999109.49934678792
 31550.004097810455 16592.065111307584 -999364.44834543241
 25535.126749941777 15780.543477636955 -999549.36433845758
 20865.248434561927 15167.271370341961 -999667.24227962084
 17434.247590318293 14734.535949629731 -999739.43628392904
 14999.316627398801 14428.317540573749 -999783.39861875039
 13335.114027163101 14197.287974797811 -999810.28787867725
 12270.492329690627 13999.986313391235 -999826.70268462598
 11686.506717660324 13804.139182884239 -999836.42227224237
 11504.211129208834 13584.62519751441 -999841.54298795655
 11671.820799942296 13321.833529220921 -999843.13637221814
 12153.979458902288 13000.778227030507 -999841.61773193057
 12923.456215772756 12610.890506830963 -999836.96156926721
 13954.847127073228 12146.207957246474 -999828.85129101935
 15219.786444314148 11605.62258260781 -999816.81703453034
 16683.363786340287 10992.866367702147 -999800.39120906277
 18301.69637180576 10316.049205032166 -999779.28916271986
 20020.762770551708 9586.7318842722161 -999753.60145881167
 21776.62475472736 8818.7020718459098 -999723.96645677136
 23497.019167919258 8026.7287548459935 -999691.68332827406
 25104.055819540768 7225.6042800015302 -999658.73027958802
 26517.455686918074 6429.6981274580012 -999627.67244903836
 27657.499748103579 5653.1084424507308 -999601.47312447557
 28446.663773393691 4910.3335132624661 -999583.25113266672
 28808.818070134272 4217.3050698838379 -999576.04330003308
 28664.830355604347 3592.6386942143267 -999582.62312221958
 27923.424201762216 3059.0970871865106 -999605.38429215131
 26466.368717303474 2645.4574709412864 -999646.20385498845
 24128.189774155646 2389.1842480781434 -999706.01791569241
 20674.864572352362 2340.1906886311094 -999783.51330798387
 15800.90681741084 2564.0100962267015 -999871.87038938841
 9215.7146938879268 3130.6674264424978 -999952.63364028698
 1058.1857116298399 4018.5049870087978 -999991.36589306069
 -6661.5759864061247 4778.5616081526532 -999966.39381247933
 44257.424228817814 15687.112674819533 -998896.98913179128
 38296.009336596435 15681.959851444404 -999143.37900228752
 31268.296382703906 15385.90486063692 -999392.59931867768
 25333.463033171167 15039.225910314264 -999565.92445659405
 20800.097668033934 14768.668157336077 -999674.56823601283
 17487.383263923821 14591.28464435197 -999740.60927773057
 15134.934859476711 14482.148842039762 -999780.57648251834
 13518.321008239029 14408.269219233065 -999804.8093379148
 12471.537699782819 14339.697302592253 -999819.40060626599
 11880.718508775652 14251.686069551068 -999827.85416885163
 11671.036673151542 14124.182992391465 -999832.13308923563
 11794.014792503913 13940.9676767644 -999833.26141677715
 12217.153957107792 13689.198479558549 -999831.65932779678
 12915.929762318236 13359.480627804905 -999827.33661154204
 13867.666609447981 12946.289624698065 -999820.02450829244
 15046.798727490041 12448.425548676218 -999809.29709090688
 16421.259356295603 11869.186056128794 -999794.71126002597
 17949.989911352979 11216.046033424102 -999775.97399295343
 19581.729485695487 10499.834181380611 -999753.12420242641
 21255.235695986805 9733.5695189272901 -999726.69894323032
 22900.933101067887 8931.2551115112328 -999697.84432359017
 24443.698599378473 8106.9269378517147 -999668.33666692034
 25806.187823187836 7274.1768014078116 -999640.4988904245
 26911.826444089609 6446.1971663019076 -999617.02673550742
 27686.422621802183 5636.2568422336763 -999600.76761235809
 28057.282839989726 4858.4284698514903 -999594.51006517664
 27948.729760740367 4128.4413702283609 -999600.8325709888
 27272.977710784042 3464.6502547777886 -999622.01900788455
 25915.562776075531 2889.2628254905449 -999659.96006958524
 23715.519420693334 2429.9381929237202 -999715.79438307637
 20444.185032024423 2121.2492480330648 -999788.74548576737
 15799.087018346359 2002.8112395080846 -999873.18075670255
 9471.5730919987109 2102.3197160214977 -999952.93366986746
 1498.9270180994774 2375.6471804700764 -999996.05475135159
 -6261.5684653608305 2612.3405329673483 -999976.98395377758
 44696.571824260202 14051.156057569115 -998901.78770518024
 38528.046285579461 14240.024967800504 -999156.04954297922
 31395.555816059663 14293.156058296503 -999404.83527192031
 25476.365981915562 14291.461807335283 -999573.26339581772
 21005.390850784588 14299.683794836645 -999677.09416519792
 17753.751474051573 14335.007055408507 -999739.62204231916
 15442.880917940431 14388.092468097466 -999777.22529775789
 13844.715237436529 14440.724408438093 -999799.87464419787
 12794.696591134412 14473.992220613809 -999813.38223107334
 12181.539425395164 14470.906741556568 -999821.08547244826
 11932.87379991182 14416.743883994961 -999824.86667348852
 12002.354962133111 14298.840156485558 -999825.72813743015
 12359.424080022671 14106.561607746033 -999824.10930924106
 12981.486071370186 13831.664122468001 -999820.06685552257
 13847.908835991289 13468.929859325384 -999813.39426380699
 14935.339246901422 13016.815391103337 -999803.72981833492
 16214.083017893732 12477.795610149145 -999790.68215732044
 17645.579115971632 11858.209770398818 -999773.98265743221
 19181.151439895038 11167.579977500938 -999753.65395025478
 20762.220076125512 10417.57849975303 -999730.1657325899
 22321.959951031928 9620.9199778017955 -999704.54035316117
 23788.10734132538 8790.4790317160387 -999678.37499243265
 25086.277868215264 7938.8143046431187 -999653.76700643473
 26142.902216474329 7078.1377458075413 -999633.15702799242
 26886.717617018723 6220.6028825937065 -999619.13172745949
 27247.727864319564 5378.7393011915328 -999614.24083981581
 27152.582774134295 4565.8887679124409 -999620.87308561767
 26515.42414107727 3796.6414562901841 -999641.19452745188
 25223.447390904472 3087.3640734156588 -999677.07080076437
 23117.248405142309 2456.8640350463102 -999729.74180289754
 19969.099211163917 1926.6688543854257 -999798.74125936977
 15473.208030768959 1518.8302518543228 -999879.12918907485
 9301.5977287832429 1246.3970127406326 -999955.96241743513
 1439.4235873777257 1093.3676532694374 -999998.36630212085
 -6297.4015733163642 1010.9081958370432 -999979.66019216808
 45284.917725418971 12640.483520709482 -998894.13573359442
 39015.843135612748 12948.684472171755 -999154.69050335616
 31822.989405393186 13232.078122949533 -999405.92826631397
 25892.324849673743 13483.542951028738 -999573.79996844986
 21433.868595911157 13713.353582695618 -999676.21418663813
 18196.92538325104 13924.361520253007 -999737.45756716025