# OOMMF OVF 2.0
#
# Segment count: 1
#
# Begin: Segment
# Begin: Header
#
# Title: Oxs_TimeDriver::Magnetization
# Desc: Oxs vector field output
# Desc:  MIF source file: /mnt/gpfs/work/plgrid/groups/plggspinsym/MF/switching-obrazki/p-ap/Anisotropy.mif
# Desc:  Iteration: 47700, State id: 334050
# Desc:  Stage: 0, Stage iteration: 47700
# Desc:  Stage simulation time: 7.02188e-09 s
# Desc:  Total simulation time: 7.02188e-09 s
# meshunit: m
# meshtype: rectangular
# xbase: 1.0000000000000001e-09
# ybase: 1.0000000000000001e-09
# zbase: 3.4999999999999998e-10
# xnodes: 35
# ynodes: 35
# znodes: 5
# xstepsize: 2.0000000000000001e-09
# ystepsize: 2.0000000000000001e-09
# zstepsize: 6.9999999999999996e-10
# xmin: 0
# ymin: 0
# zmin: 0
# xmax: 7.0000000000000005e-08
# ymax: 7.0000000000000005e-08
# zmax: 3.4999999999999999e-09
# valuedim: 3
# valuelabels: Magnetization_x Magnetization_y Magnetization_z
# valueunits: A/m A/m A/m
#
# End: Header
#
# Begin: Data Text
 -0 0 -0
 0 0 -0
 -0 -0 0
 -0 0 0
 0 0 0
 -0 0 -0
 0 0 0
 0 -0 0
 -0 0 0
 0 0 0
 0 0 0
 -0 -0 0
 0 0 0
 18059.156141602212 30956.111181679167 -999357.58668254502
 15680.871476094808 30290.623680059551 -999418.12490409787
 13566.960423486113 29589.100463780393 -999470.07094690518
 11950.258205846199 29082.035715604485 -999505.59104361699
 10537.31106812566 28817.16866978832 -999529.15708613035
 9004.3299667505617 28812.745617038374 -999544.27002102195
 7041.7991731321299 29087.59703241324 -999552.06205744238
 4442.4567981827004 29618.405169503487 -999551.40670843516
 1727.9359117126769 30174.815797427509 -999543.14300538134
 0 0 0
 -0 0 -0
 -0 0 -0
 -0 0 0
 0 -0 0
 -0 0 0
 -0 -0 0
 0 0 0
 0 -0 0
 0 -0 -0
 0 -0 0
 -0 -0 0
 0 0 -0
 -0 -0 -0
 -0 -0 -0
 -0 -0 -0
 -0 0 -0
 0 0 -0
 0 0 -0
 -0 -0 0
 0 0 0
 0 0 -0
 0 0 0
 23050.10609671838 29207.282432273729 -999307.57390397659
 20971.805097551725 27555.992726714285 -999400.24547515262
 19296.800285265297 25420.366739161589 -999490.58947725839
 17446.279852372434 24849.29543669859 -999538.96364054398
 15212.397132311919 23722.83033741534 -999602.8262736511
 13368.657645163312 22887.224840360828 -999648.6652478826
 11933.971616147548 22371.060834970576 -999678.50630019209
 10666.221372691522 22142.975112064334 -999697.91455960111
 9306.1853882375381 22212.548865197572 -999709.95673066657
 7620.8080089397972 22638.699012200374 -999714.66558829974
 5488.0285786016748 23514.579142986553 -999708.43054865173
 3248.0810696746535 24792.594997866709 -999687.3397230939
 1945.9591924111617 25344.816465466334 -999676.87455555005
 48.892991363071403 26860.320676670013 -999639.19530129561
 -2535.9206247336629 27979.162803511648 -999605.28987966047
 -0 0 -0
 0 -0 0
 -0 0 -0
 0 -0 -0
 -0 0 0
 -0 0 0
 -0 0 -0
 -0 0 0
 -0 0 -0
 -0 0 0
 0 -0 -0
 -0 0 -0
 -0 0 0
 -0 0 0
 -0 -0 0
 0 0 -0
 0 -0 -0
 -0 -0 0
 27752.785010624044 27010.572884774636 -999249.82455669739
 25083.179077553119 24999.351250737313 -999372.73655248643
 22267.589176611662 23622.624722897403 -999472.92413224641
 19707.378760239768 21420.107686202329 -999576.30934767157
 17759.193622883471 19273.765812901038 -999656.50750307972
 16013.995882925101 17718.463447533835 -999714.7633144767
 14334.485797160458 16499.264646293701 -999761.11985967064
 12932.215712433399 15690.323018506944 -999793.26441036898
 11792.750543162483 15223.972969775874 -999814.56364750082
 10768.012181790607 15049.331106526615 -999828.76911344111
 9689.320782300465 15169.910113830483 -999837.98232009367
 8414.7209518952131 15640.564360929844 -999842.27016953682
 6887.605089790467 16542.630899600124 -999839.43823948374
 5234.2414048609662 17874.725084639646 -999826.53341470403
 3626.28418494369 19357.374730918964 -999806.05224540259
 1487.2401711567918 21203.548048440851 -999774.07331198093
 -1368.9570542680651 23178.281229695574 -999730.41027860134
 -4210.588355690953 24288.418721572398 -999696.1256610452
 -7233.1625596506756 25602.756401210623 -999646.02746374474
 -0 0 -0
 -0 -0 -0
 0 0 -0
 -0 0 0
 -0 0 -0
 0 0 -0
 0 -0 -0
 -0 -0 -0
 -0 -0 0
 0 0 0
 0 0 0
 0 0 -0
 -0 0 0
 0 0 0
 -0 -0 -0
 29914.04199324657 23198.865515207013 -999283.22448164492
 26650.656850311832 21958.470153309612 -999403.60619620199
 23145.122123477689 19389.260694955177 -999544.07601245493
 20228.325086394529 17030.641559946267 -999650.3249197969
 17907.919355856538 14869.462558875364 -999729.06605117489
 16143.871090192108 13044.00536955303 -999784.59147465485
 14710.027572240329 11646.039872349182 -999823.97692999733
 13482.467594594969 10623.202788622333 -999852.67446262913
 12465.524737220281 9949.0318396179609 -999872.80564003729
 11618.799267058435 9567.9420031499067 -999886.72257882089
 10850.379710385236 9442.4470408828183 -999896.5493759946
 10056.426988199093 9572.2569570445485 -999903.61544149823
 9149.6807790390194 9989.9747606367782 -999908.23766279873
 8082.8824351424428 10739.336177000587 -999909.66275459959
 6853.1828967661022 11828.298378855463 -999906.55825514207
 5409.2532707042928 13205.988000892341 -999898.16574487905
 3491.203733775104 14938.101245547297 -999882.3253901765
 934.76672628012761 17017.572299919164 -999854.75367384462
 -2223.8893289458883 19229.655701585983 -999812.61977325077
 -6029.4599069731912 21558.536893868059 -999749.40615147457
 -9262.5771398993602 22681.494143467444 -999699.83219371748
 -0 -0 -0
 0 -0 0
 -0 0 -0
 -0 -0 -0
 0 -0 -0
 0 -0 -0
 0 0 -0
 0 -0 -0
 -0 0 -0
 0 0 -0
 -0 0 0
 -0 0 0
 -0 0 -0
 31194.077437270837 20840.271575953331 -999296.05853994924
 28000.806634155477 18971.663782469001 -999427.85172375594
 24094.917412973678 16258.203392526899 -999577.46362015838
 20745.82779798079 13625.011808886986 -999691.93738980626
 18171.796838746897 11420.529341497522 -999769.65212453378
 16237.882914057853 9610.5319687931005 -999821.96856927802
 14793.378970267957 8166.201468553938 -999857.22435366595
 13677.912620035317 7066.4788138089325 -999881.48276859918
 12784.487586755813 6271.8660796093072 -999898.60514605371
 12061.890466625808 5746.430366493264 -999910.74068459449
 11460.190658204259 5452.1457899707557 -999919.46582530451
 10915.785928864036 5364.492406020312 -999926.03118369775
 10361.182686705195 5480.9143078612333 -999931.30037602212
 9736.0526223153556 5817.9132996967764 -999935.67851345951
 8992.1213430495263 6399.6118500193952 -999939.09150603821
 8082.2749608068443 7242.9931660361417 -999941.10620648775
 6921.148200402984 8361.9520185343172 -999941.08599758393
 5351.8474144767815 9809.9735710987388 -999937.55912446172
 3217.0336905633499 11640.327759487313 -999927.07407284726
 385.33651713021601 13878.016692576337 -999903.62143981131
 -3223.5124677681301 16557.6270250948 -999857.71685508743
 -7159.4155813022162 19288.316962559053 -999788.32939642097
 -10065.490621104042 20989.725656119099 -999729.02194316511
 0 -0 -0
 -0 0 -0
 0 0 0
 0 0 -0
 0 -0 0
 -0 0 0
 -0 0 0
 0 -0 0
 -0 -0 -0
 -0 -0 -0
 0 0 0
 32280.9094840371 19500.640992120156 -999288.58088331018
 29052.467768206148 17212.144490399867 -999429.68546997791
 25015.087652053233 14128.372745791166 -999587.23204796703
 21389.244802684687 11308.299875096895 -999707.26843446796
 18537.707957357015 8989.5881469758097 -999787.74781882367
 16416.394888972016 7156.8844427274389 -999839.62763231329
 14864.732057795156 5719.6494817929542 -999873.15463045402
 13730.454824275663 4606.8299487556214 -999895.12036420195
 12886.710531151402 3769.4366295652258 -999909.857956797
 12243.22389611759 3167.8944956239875 -999920.03075900732
 11740.970145388608 2770.110498005527 -999927.23540659389
 11331.611240290633 2549.5256478992428 -999932.54497774492
 10967.011729084636 2489.6802232360496 -999936.7610734792
 10599.142292975266 2587.2842573966268 -999940.48030011507
 10182.078806482241 2850.8315900971411 -999944.09745266428
 9670.5189511901408 3296.2258493990457 -999947.80661710759
 9010.8685019645436 3943.6071458359179 -999951.62493568624
 8124.7999789536334 4822.5391901975472 -999955.36437436112
 6899.0251119961904 5985.2760791131413 -999958.28909148043
 5199.7544767923537 7502.3151772772644 -999958.33804232138
 2884.5890661135072 9459.2186808627921 -999951.09996832698
 -160.47600718341363 11946.732246737925 -999928.62237065507
 -3862.2840832768575 14918.653403862048 -999881.25122050138
 -7735.8774992078861 17969.895511166898 -999808.60121056938
 -10571.052705077665 19928.159161161784 -999745.52828064887
 0 -0 0
 0 0 0
 0 -0 -0
 0 -0 0
 0 -0 -0
 -0 -0 0
 0 -0 -0
 0 -0 0
 0 0 -0
 33659.578197543044 18599.964728472489 -999260.26344874885
 30206.102093132224 16151.68001322322 -999413.18513870426
 25960.169170760822 12859.417231089203 -999580.2644135697
 22117.514302862055 9843.8611961779916 -999706.91402921325
 19031.784726753118 7400.702043772003 -999791.48865119554
 16702.668602642916 5500.7997257996176 -999845.36907660239
 15003.187819247278 4042.2371100387572 -999879.27504994662
 13782.83592255212 2925.0174588446775 -999900.73392652208
 12911.214837816946 2075.380970343876 -999914.49300689681
 12285.936040036517 1442.7150958970258 -999923.48424705607
 11831.993113548964 990.9494772354285 -999929.50849452114
 11495.544045603647 693.53678880491771 -999933.68353797239
 11233.902809339046 531.08110170455529 -999936.7566904088
 11008.673673070331 491.94130829603233 -999939.28170549893
 10783.053900493736 573.02123216498501 -999941.69699800317
 10520.416041534952 779.27806135281116 -999944.35523783823
 10181.411278617787 1122.6098778980461 -999947.53792958427
 9718.090918937236 1622.1110552856396 -999951.46255436598
 9065.9527300577556 2307.8150287524963 -999956.24028798856
 8138.4647063515322 3226.7739289314018 -999961.67592675006
 6828.2206951739736 4445.5642010502579 -999966.80562960298
 5011.0471625372829 6051.2944220935369 -999969.13514475629
 2562.8969039708672 8142.7986151791647 -999963.56253124145
 -588.5726856497821 10779.989676579047 -999941.72100416245
 -4372.1964164509991 13882.041407555449 -999894.08080298919
 -8362.1558424057021 16995.675952955342 -999820.59458113275
 -11392.240733541401 18927.342096172462 -999755.95650750864
 0 -0 0
 0 -0 0
 0 0 -0
 0 0 -0
 0 0 -0
 0 -0 0
 -0 0 -0
 35879.208932738562 17628.396875656937 -999200.6415079782
 31900.180864014743 15315.529967933673 -999373.71038197947
 27223.083500747616 12033.175037465087 -999556.95506720815
 23042.792786602899 8947.5482280772467 -999694.43885684363
 19683.61854930381 6413.7301583875224 -999785.68664802401
 17125.924879160957 4443.110331696208 -999843.46848274895
 15245.083515502905 2941.7158980340191 -999879.45960309659
 13895.816320729016 1804.3337695601535 -999901.82051460876
 12945.212510727706 943.68993398098416 -999915.76191315276
 12284.872655564213 296.31703337658712 -999924.49419946317
 11831.3620854048 -181.63302687201789 -999929.99048965797
 11522.559461630281 -520.52152607298649 -999933.47762778401
 11312.19018487225 -741.63340642187211 -999935.74010188854
 11163.709877734495 -859.56764253698634 -999937.3143978744
 11045.557387534182 -882.89367307038401 -999938.6061957808
 10928.177789532894 -814.19773824396918 -999939.9542033727
 10781.756975114073 -650.18487449805434 -999941.66378652223
 10573.414512139718 -381.61903209401532 -999944.02706974989
 10263.238922931565 7.6869734069586011 -999947.33154687763
 9799.552578657358 543.42971752035169 -999951.8355667938
 9114.8045735844134 1264.3641498371612 -999957.65996410174
 8123.1483150781341 2225.1378623015362 -999964.53098244686
 6719.4752837281367 3497.667469123498 -999971.30707545136
 4782.7861690167374 5166.8198675790072 -999975.21415728971
 2189.7973112514082 7310.7573225305614 -999970.8783835189
 -1152.9319826305323 9957.0104319129932 -999949.76308367739
 -5218.7856964238581 12980.632894437686 -999902.12893338432
 -9620.7150270342445 15882.497910896951 -999827.57918677106
 -13190.129015604043 17450.630065045734 -999760.71937583387
 0 0 0
 0 0 0
 -0 0 0
 0 -0 0
 -0 0 -0
 39413.195557373954 15798.964639605087 -999098.08964499203
 34647.884195966901 14229.207266391833 -999298.28068565833
 29191.307140776062 11296.726741293887 -999510.00572897983
 24414.986325120997 8326.3338858760962 -999667.23493708903
 20624.260065123439 5798.5418870496587 -999770.48206513387
 17750.839054876542 3794.3506936104659 -999835.24173518794
 15634.411914352186 2255.9064164597166 -999875.23024141975
 14111.383876313692 1090.9024546946196 -999899.83437188843
 13039.176355246816 212.52426603063898 -999914.96374112379
 12301.509252204383 -448.33583644992018 -999924.23306223354
 11807.533599303581 -942.11712324899361 -999929.84482193924
 11488.155200805091 -1304.0842235460482 -999933.15859332331
 11291.479360121522 -1558.5841829591213 -999935.03454434697
 11178.141016972904 -1722.3567440698905 -999936.03927983844
 11116.959173411395 -1806.548838323894 -999936.57278851001
 11081.425414101137 -1817.6299353032691 -999936.94712827273
 11047.084306108825 -1757.6797443299647 -999937.43428789102
 10989.315571465962 -1624.375745337177 -999938.29626967933
 10880.946202824234 -1410.6315179995258 -999939.805752552
 10689.335383542659 -1103.6337179919994 -999942.25838379026
 10372.978933049375 -683.11287604963297 -999945.96587258298
 9877.9083157547429 -119.11746870460621 -999951.20517869969
 9134.030297280422 630.06441250937678 -999958.08537626453
 8051.2330035289906 1619.0459616042162 -999966.27760004846
 6515.816478997328 2913.5568943791127 -999974.52733648941
 4388.9742873962823 4581.993319331933 -999979.870918373
 1512.3489375600511 6674.6491580234269 -999976.58065542136
 -2260.39322053878 9174.9393347881596 -999955.35455873806
 -6954.2111177339411 11886.8964188261 -999905.16582386859
 -12165.134237490292 14197.284833935822 -999825.20803004748
 -16456.309452413829 14808.139504302751 -999754.92441079137
 0 0 0
 -0 -0 -0
 0 -0 -0
 0 0 -0
 37454.484819016747 12671.334153238333 -999217.99366190308
 32059.251616605354 10449.94413898415 -999431.33983944834
 26522.636179830763 7784.3822650281882 -999617.9035825762
 22066.484425804338 5372.4043224787738 -999742.07050462835
 18708.795691890962 3395.978641292776 -999819.20780350454
 16249.499924607127 1848.7598255503583 -999866.25897632318
 14482.596045509303 664.75008569796489 -999894.90073662554
 13237.332410694464 -231.74172915976118 -999912.35582245898
 12380.048482519098 -907.4121060599158 -999922.95253326418
 11808.272330282707 -1414.6794934752477 -999929.27919253591
 11444.355554610733 -1792.1076040213261 -999932.90528728731
 11229.834815936743 -2067.0008018056387 -999934.80703378457
 11120.618907583559 -2258.3247702112949 -999935.61382938281
 11082.92206775301 -2379.0618962539706 -999935.75238758919
 11089.862675316326 -2437.767478329446 -999935.53403985198
 11118.734169621601 -2439.3980642192187 -999935.20944486675
 11148.813271321085 -2385.6345395989788 -999935.00424301799
 11159.433373192538 -2274.8537790454711 -999935.14394038229
 11127.979130551534 -2101.7795880860103 -999935.87324539619
 11027.565011559525 -1856.7391420254066 -999937.47070988093
 10824.242133248339 -1524.5101809741668 -999940.25404068455
 10473.636284809743 -1082.8802394087297 -999944.5636200842
 9916.7676037717993 -501.22252281871039 -999950.70203299285
 9074.6670447889737 260.453805494101 -999958.79044180678
 7841.4903059885883 1251.033345620393 -999968.47247568227
 6076.4618340296765 2524.7220324521513 -999978.35096077865
 3597.3585054970495 4131.2726549335202 -999984.99568645214
 187.03273907471353 6092.7074256821115 -999981.42179491487
 -4347.2996577660097 8350.7452409381276 -999955.68203776237
 -9916.4585880480572 10653.623680675213 -999894.07646587351
 -15129.06177904729 12347.454736806809 -999809.30774383608
 -0 0 -0
 -0 -0 -0
 0 0 -0
 41644.157724912919 10942.586467012126 -999072.58191224246
 36155.514838859795 9666.6914229592985 -999299.42150672246
 29711.376957102828 7316.4645028365449 -999531.74208050629
 24290.545474452967 5050.7513298299245 -999692.18227990437
 20196.988367434198 3141.1165593824021 -999791.0857012308
 17219.294517763243 1615.5490058990381 -999850.43176353117
 15092.766677122905 430.5491266878704 -999886.00501331128
 13597.218726540563 -475.77442866898156 -999907.44035715412
 12565.555199978677 -1163.2461176022432 -999920.37367031677
 11873.970561223701 -1682.1404920150699 -999928.08702750038
 11430.984960724676 -2071.5652032737457 -999932.51832332998
 11168.754524328462 -2360.4467781240801 -999934.84148387529
 11036.620353712575 -2569.4853491876556 -999935.7933168551
 10996.319718329087 -2713.1796896063006 -999935.85774719785
 11018.345038861784 -2801.4865340559641 -999935.37178449892
 11079.126879713294 -2840.9649214830411 -999934.58879363618
 11158.809278753803 -2835.4430250289233 -999933.71842254256
 11239.433393922101 -2786.3001021723876 -999932.95358675136
 11303.290108641275 -2692.460408273063 -999932.49086609331
 11331.221084949069 -2550.1249443319448 -999932.54787085124
 11300.633874008514 -2352.2475811437057 -999933.37908350816
 11183.035149316471 -2087.7552918249544 -999935.28840755008
 10940.808337909964 -1740.5824547864556 -999938.63265984028
 10522.869604594876 -1288.6369673691875 -999943.80273595918
 9858.6509747013206 -702.91608313845097 -999951.15526206524
 8849.8418995878237 52.853848172591206 -999960.83798557962
 7359.6323914026671 1021.3625348278888 -999972.39593382576
 5200.9562184460319 2248.3452584645593 -999983.94737016305
 2131.5181221904418 3773.8062061842156 -999990.60746449651
 -2115.4938785297099 5611.1470207110069 -999982.0196957353
 -7665.5186020888304 7692.555476529802 -999941.03046869813
 -13909.754452062758 9670.1492296219894 -999856.49317537562
 -18614.815760223373 10253.381564150399 -999774.15289689961
 -0 -0 0
 0 0 -0
 39940.170733705017 8433.2369543585592 -999166.48426387587
 33915.105414476246 6850.2025138233412 -999401.24091890373
 27534.827599123651 4810.3151656395639 -999609.27073386707
 22454.801875209541 2978.0599262255264 -999743.42360018613
 18724.865808182349 1486.8238501772644 -999823.56881367019
 16067.348427660832 315.65646120969404 -999870.86199943966
 14204.159700820741 -588.49808912438493 -999898.94265230256
 12918.124279486095 -1279.8263953105582 -999915.73850474902
 12050.37111498736 -1805.2917331065414 -999925.76198323327
 11486.416279579505 -2202.6934697775705 -999931.60285218013
 11143.458994037575 -2501.0256337141218 -999934.78196951817
 10960.940133755006 -2721.7494804373332 -999936.22290181578
 10893.914492111169 -2880.3302778541647 -999936.51114684739
 10908.408338408246 -2987.6874022785723 -999936.03813019407
 10978.111809240841 -3051.3625705321551 -999935.0830166759
 11081.936844819065 -3076.3510973978578 -999933.86118267477
 11202.147344295643 -3065.6040526313559 -999932.55470890098
 11322.814902800819 -3020.2622360156774 -999931.3335818128
 11428.409366778791 -2939.663819899004 -999930.37249399081
 11502.309226353047 -2821.164226382069 -999929.86649808043
 11525.04387630527 -2659.7702035135017 -999930.04704634915
 11472.019244011828 -2447.6055247055415 -999931.19863401633
 11310.440542307815 -2173.2177139355308 -999933.67333013995
 10994.992151401835 -1820.766665678276 -999937.89554968849
 10461.720559756266 -1369.1344784655919 -999944.33738769137
 9619.4497437683003 -791.0509194481682 -999953.41912764625
 8338.322579298836 -52.410100790232647 -999965.23421054229
 6436.3791635093849 887.70056720325636 -999978.89228271542
 3669.9890638003876 2074.5124092709234 -999991.11374978488
 -250.41426090553156 3546.1181883914724 -999993.68114928214
 -5550.1094398966497 5288.3756192504907 -999970.61425249639
 -11982.994164593034 7080.2357363920673 -999903.13436490844
 -17617.727741333139 8210.8564374361267 -999811.08090768638
 0 0 0
 -0 -0 0
 37884.405976255723 6381.4357221924483 -999261.75202593952
 31800.484264350329 4657.694437402979 -999483.384095544
 25711.844109637128 2889.3446625486754 -999665.22034124134
 20992.130740337783 1421.215110776244 -999778.63079513214
 17581.042976698143 266.47367510620489 -999845.406010165
 15183.035851639248 -626.03470064795715 -999884.5350853675
 13525.25907755036 -1310.8758255596306 -999907.67022333387
 12399.970738644173 -1834.1829721159304 -999921.43516303611
 11657.579445473071 -2232.6437629074107 -999929.55559044273
 11191.73831731067 -2534.572529331987 -999934.15830020059
 10926.412955860771 -2761.3059832287058 -999936.49232798035
 10806.445584818208 -2928.5732774553026 -999937.32013180736
 10791.043392681491 -3047.7464904478866 -999937.1303356163
 10849.350684431325 -3126.8998025061228 -999936.25501196377
 10957.391347641507 -3171.6441075885368 -999934.93600759341
 11095.899103778864 -3185.7188492718137 -999933.36388906057
 11248.680824826813 -3171.3664708226338 -999931.70247492834
 11401.282469963091 -3129.5115839516043 -999930.10601505835
 11539.743122424043 -3059.7842011537768 -999928.73348519742
 11649.269967261709 -2960.3981742195078 -999927.76266682404
 11712.62448851 -2827.9029635254615 -999927.40606126992
 11708.006075717567 -2656.7997536950988 -999927.92940731463
 11606.111034764193 -2439.0241334404377 -999929.67220096302
 11365.967186601785 -2163.268022143518 -999933.06529056118
 10928.97654975618 -1814.1131291624727 -999938.631349509
 10210.547696924426 -1370.9092074445673 -999946.93125369085
 9088.8397006464056 -806.34633437152024 -999958.37053273607
 7391.216162721099 -84.788390621285117 -999972.68099411845
 4882.640847712747 838.85710951520639 -999987.72799325013
 1271.7020408472627 2016.3256440939447 -999997.15859837143
 -3713.8907738194757 3487.2289523975255 -999987.02304057602
 -10001.229547499823 5207.5663751964667 -999936.42630918615
 -15923.207846771922 6799.2265759276706 -999850.09974987642
 -0 0 -0
 43632.936278309491 5858.8465709728589 -999030.45038106351
 37450.692664612201 4612.6233532049237 -999287.83107007854
 30305.729109957494 2853.5577015518838 -999536.60262721637
 24324.639592044023 1376.5362667258657 -999703.16447264689
 19875.674215649513 233.17541427289837 -999802.43208530941
 16713.226685877602 -640.12033190618217 -999860.1193665578
 14515.32203049555 -1306.4029539198223 -999893.79372895043
 13013.81073639902 -1815.2302413295445 -999913.66910813272
 12010.007399161761 -2203.9299882119699 -999925.44842847111
 11362.475308743435 -2500.4054602364895 -999932.31877332204
 10971.428196833125 -2725.4489354670291 -999936.09780396579
 10765.959696320486 -2894.4473208192767 -999937.85621233715
 10694.846506882985 -3018.6670547586978 -999938.25204729848
 10720.268062062101 -3106.24914422344 -999937.71159454319
 10813.58215467851 -3162.989839744635 -999936.52895384177
 10952.475519901314 -3192.9288756821497 -999934.92212502542
 11118.974604714946 -3198.7718625283615 -999933.06589106808
 11297.983524334681 -3182.1570214013013 -999931.11234973324
 11476.084865661016 -3143.7955753426763 -999929.20550683804
 11640.425334203755 -3083.4949811844945 -999927.49364978436
 11777.495047196839 -3000.0863313738114 -999926.14231873036
 11871.634570675998 -2891.2503061771204 -999925.34969580965
 11903.030876429979 -2753.2449192388194 -999925.36596406484
 11844.928749376222 -2580.5070944662511 -999926.51662312564
 11659.645828562821 -2365.0997483914421 -999929.22697675566
 11292.895241383349 -2095.9302723441715 -999934.03662109666
 10665.80389836492 -1757.6473652857392 -999941.57394466852
 9664.1810973141164 -1329.0731533010942 -999952.41745208635
 8125.3848822109985 -781.06418667541641 -999966.6834746307
 5826.0071280663342 -73.913499509051249 -999983.0259448099
 2482.1497239168229 844.65092038032753 -999996.56274287798
 -2200.4169780781085 2036.2434949682124 -999995.50592867762
 -8313.0994639755263 3540.2847288502053 -999959.17854747479
 -15082.869373819161 5181.3809305133982 -999872.82208444178
 -20087.258485431521 5868.4376864420274 -999781.00776403025
 42797.02145234005 3258.471202523895 -999078.47405508149
 36205.823916023393 2357.5588532309912 -999341.57335258275
 29037.469024284965 1157.0065821545477 -999577.6541762189
 23270.654515118164 113.69997598498888 -999729.19518775353
 19048.531546650047 -702.03232617864478 -999818.31379332568
 16075.452305406121 -1324.7460143841536 -999869.90397809935
 14026.142955646543 -1798.9825247622416 -999900.01048888068
 12639.610136555455 -2161.0562258913083 -999917.7816658651
 11725.087607172869 -2438.0588746671606 -999928.28652335249
 11147.638134359373 -2649.8220425989302 -999934.35214876384
 10812.436647701257 -2810.8349660975914 -999937.59326296591
 10652.29085312614 -2931.6750014318354 -999938.96512800525
 10618.746004763745 -3020.0253838988542 -999939.05898307962
 10676.02902176904 -3081.4177986899072 -999938.2617285311
 10797.012699191389 -3119.7797808010541 -999936.84375109046
 10960.511117978547 -3137.8426912744371 -999935.00845768838
 11149.429584706206 -3137.4282110633085 -999932.92113229085
 11349.408564783233 -3119.6392615741074 -999930.72698867845
 11547.73078752006 -3084.9600920569196 -999928.56391588761
 11732.284379573737 -3033.2851414189608 -999926.57364652911
 11890.431354296745 -2963.8735464697684 -999924.91372893041
 12007.588861230064 -2875.2384425885371 -999923.77250150312
 12065.331101791053 -2764.9533020843655 -999923.38847465778
 12038.717717368696 -2629.3644958181458 -999924.07497673016
 11892.496111665885 -2463.1648024166798 -999926.24795801344
 11575.674991870412 -2258.7793515248441 -999930.44841345015
 11013.918689422902 -2005.4767476593559 -999937.33386553649
 10099.262496327996 -1688.1339081666722 -999947.57617634046
 8677.3373599144525 -1285.6543189052625 -999961.52471448341
 6534.5484273109323 -769.43945038816435 -999978.35358560807
 3394.4977477832449 -103.6680413196205 -999994.23330236133
 -1047.968690450934 746.07566935785621 -999999.17256601749
 -6975.6537483730899 1773.2110861446838 -999974.09765314753
 -13980.277571692694 2801.0716415589263 -999898.34775174875
 -19859.905040832058 3318.7967861818979 -999797.26432895416
 41943.157117359093 889.15850708424841 -999119.60293459252
 35222.931990321653 389.45649278169833 -999379.40412320173
 28132.11248896263 -299.78188852592666 -999604.1688477135
 22534.571097644413 -937.28690845991889 -999745.62494601426
 18475.449015048158 -1453.0689130200442 -999828.25843963155
 15635.01362314056 -1852.6288239825733 -999876.04937584384
 13688.754288445596 -2158.9577171346623 -999903.97384329175
 12381.8010067252 -2393.8782184569673 -999920.47701349971
 11529.359823763682 -2574.3346166861947 -999930.22089710622
 11001.169902116091 -2712.7745451401565 -999935.80549705878
 10705.841596056027 -2818.2218866403741 -999938.71941290388
 10578.674591612289 -2897.1978391853663 -999939.84713509912
 10573.017063019515 -2954.3953980135871 -999939.73961335153
 10654.406872264557 -2993.1576681464553 -999938.76043554489
 10796.66711731234 -3015.8287106784464 -999937.16640414251
 10979.315444278252 -3024.0076063800689 -999935.1529026127
 11185.793447542892 -3018.7351693733153 -999932.88037894142
 11402.192563594135 -3000.616738398905 -999930.49073619698
 11616.216423422753 -2969.8975760701387 -999928.11902875872
 11816.209544272919 -2926.4869161665674 -999925.90368803602
 11990.071294177651 -2869.9419126809548 -999923.99792373145
 12123.904747310718 -2799.4004378638924 -999922.58414882619
 12200.180308784094 -2713.464415251899 -999921.89330532227
 12195.168959055478 -2610.0094685671443 -999922.22982821742
 12075.270075257804 -2485.9049336848534 -999924.00117672468
 11791.782509397577 -2336.6008674053119 -999927.74447038816
 11273.528704570987 -2155.5549839510145 -999934.12839709513
 10416.800054669873 -1933.4926156784645 -999943.87436641986
 9072.5117666131409 -1657.6642990650721 -999957.46993525501
 7032.2290374453423 -1311.74296794623 -999974.4132152336
 4020.0366845874391 -878.37249236782111 -999991.53384757158
 -287.22608258599104 -349.58076164700162 -999999.89764722902
 -6142.6754514347631 244.66764203758683 -999981.10365948593
 -13295.432458895553 785.73725563479218 -999911.30311277905
 -19553.936842334606 1067.8737686747875 -999808.23321253981
 41360.382651339198 -947.38718635866144 -999143.84410076507
 34617.622234800649 -1189.0812210213626 -999399.92311219347
 27588.419851088842 -1514.7551461100563 -999618.21942528011
 22092.713586887778 -1822.4142159509563 -999754.26521360385
 18131.165999841305 -2076.2729852612338 -999833.4610873838
 15370.221520484356 -2275.7093163359009 -999879.28143227298
 13485.816436499479 -2430.3941205026731 -999906.10856192885
 12226.99098016407 -2550.3136046952827 -999921.99525367434
 11412.686957253311 -2643.3367960955347 -999931.37931910006
 10915.461318766207 -2715.2214659489655 -999936.73813726287
 10645.919346114508 -2770.0981153267639 -999939.49364834453
 10540.752391344757 -2810.9088532329192 -999940.49389473337
 10554.287870033118 -2839.7215660710767 -999940.26971063809
 10652.750384752359 -2857.95583601712 -999939.17364891735
 10810.450289547191 -2866.5464792056546 -999937.45658207044
 11007.248111847361 -2866.0723214605455 -999935.31096689042
 11226.841411724979 -2856.8514425094418 -999932.89596439968
 11455.524027274962 -2839.0154605236899 -999930.35305488924
 11681.193182999159 -2812.5560441119496 -999927.81702196889
 11892.402102434971 -2777.3532980794762 -999925.42575978721
 12077.315243353733 -2733.176693948119 -999923.33116178086
 12222.383039700979 -2679.6654959072293 -999921.71330842748
 12310.558537760613 -2616.2751692563279 -999920.79949000326
 12318.779434744347 -2542.1908897948156 -999920.88934011059
 12214.385480976202 -2456.1880554184845 -999922.38495173131
 11949.984166299128 -2356.4349904422465 -999925.81979492935
 11456.19527098266 -2240.2224088182065 -999931.86617562722
 10631.629601775783 -2103.6532041596661 -999941.2698229868
 9329.7913068765774 -1941.4195400863121 -999954.59191122255
 7343.923659775116 -1747.1052247444668 -999971.50679837528
 4395.4734897628014 -1515.1145400739611 -999989.19206195988
 146.70649654702098 -1246.4455959336324 -999999.21242498001
 -5692.41067116052 -960.65707408258936 -999983.33666053484
 -12920.393982191948 -709.38357788021926 -999916.27659233788
 -19313.93562541949 -564.71257402892672 -999813.30906843091
 41097.319553499634 -2514.444906508551 -999151.98438091984
 34368.218200327283 -2565.5369066007784 -999405.94534859352
 27376.624562087203 -2599.2193058236053 -999621.81072973146