# OOMMF OVF 2.0
#
# Segment count: 1
#
# Begin: Segment
# Begin: Header
#
# Title: Oxs_TimeDriver::Magnetization
# Desc: Oxs vector field output
# Desc:  MIF source file: /mnt/gpfs/work/plgrid/groups/plggspinsym/MF/switching-obrazki/p-ap/Anisotropy.mif
# Desc:  Iteration: 43100, State id: 301850
# Desc:  Stage: 0, Stage iteration: 43100
# Desc:  Stage simulation time: 6.34521e-09 s
# Desc:  Total simulation time: 6.34521e-09 s
# meshunit: m
# meshtype: rectangular
# xbase: 1.0000000000000001e-09
# ybase: 1.0000000000000001e-09
# zbase: 3.4999999999999998e-10
# xnodes: 35
# ynodes: 35
# znodes: 5
# xstepsize: 2.0000000000000001e-09
# ystepsize: 2.0000000000000001e-09
# zstepsize: 6.9999999999999996e-10
# xmin: 0
# ymin: 0
# zmin: 0
# xmax: 7.0000000000000005e-08
# ymax: 7.0000000000000005e-08
# zmax: 3.4999999999999999e-09
# valuedim: 3
# valuelabels: Magnetization_x Magnetization_y Magnetization_z
# valueunits: A/m A/m A/m
#
# End: Header
#
# Begin: Data Text
 -0 0 -0
 0 0 -0
 -0 -0 0
 -0 0 0
 0 0 0
 -0 0 -0
 0 0 0
 0 -0 0
 -0 0 0
 0 0 0
 0 0 0
 -0 -0 0
 0 0 0
 16589.583659152846 29777.056647386526 -999418.88745982491
 14221.474538818324 29015.742978257356 -999477.78180475894
 12149.277739465448 28208.036667984808 -999528.23957992648
 10577.418786768187 27601.851087499628 -999563.03254389775
 9207.3575313169531 27251.7951085032 -999586.19649865851
 7716.9076544463906 27181.043224526726 -999600.74040862883
 5800.9899626860924 27412.384201753728 -999607.37777780951
 3262.9477454995504 27924.98221994194 -999604.69613744132
 640.25756137530379 28486.618293892599 -999593.96889358689
 0 0 0
 -0 0 -0
 -0 0 -0
 -0 0 0
 0 -0 0
 -0 0 0
 -0 -0 0
 0 0 0
 0 -0 0
 0 -0 -0
 0 -0 0
 -0 -0 0
 0 0 -0
 -0 -0 -0
 -0 -0 -0
 -0 -0 -0
 -0 0 -0
 0 0 -0
 0 0 -0
 -0 -0 0
 0 0 0
 0 0 -0
 0 0 0
 21746.537398739107 28287.80891439092 -999363.24125814636
 19618.938291300539 26512.379291485759 -999455.94750575488
 17869.0496559768 24253.026549552003 -999546.14088974358
 15950.031957621 23610.990466222273 -999593.97637728625
 13716.534851321876 22416.74601092832 -999654.61343903886
 11910.938265242083 21501.181684835818 -999697.86872624524
 10523.247399336538 20902.389976054408 -999726.13817858219
 9304.7606134160906 20599.829417560453 -999744.50158922828
 7997.3712229760313 20610.889634835803 -999755.58677207807
 6373.2201988899178 20999.828298037239 -999759.16563727974
 4322.7343099555683 21861.280996280439 -999751.66834633844
 2206.8438878358479 23136.884913391081 -999729.87071336398
 1057.8884676011487 23670.202155856445 -999719.26179397537
 -760.69257287285859 25143.229795024021 -999683.56960704515
 -3280.2340999806333 26248.789220405106 -999650.05933512177
 -0 0 -0
 0 -0 0
 -0 0 -0
 0 -0 -0
 -0 0 0
 -0 0 0
 -0 0 -0
 -0 0 0
 -0 0 -0
 -0 0 0
 0 -0 -0
 -0 0 -0
 -0 0 0
 -0 0 0
 -0 -0 0
 0 0 -0
 0 -0 -0
 -0 -0 0
 26570.299094601982 26280.355498442026 -999301.43706536258
 23813.098067286588 24148.48063960929 -999424.72815276892
 20914.061821818759 22669.186338399475 -999524.24183151661
 18298.495500000838 20368.121228552085 -999625.08206829976
 16294.520130809464 18128.171500574783 -999702.88486717502
 14503.080008360286 16505.91624228099 -999758.57855748048
 12818.850570527036 15228.768364633586 -999801.86121258396
 11445.169877904673 14354.600959811691 -999831.46255644038
 10351.112047080271 13818.770794202686 -999850.93691666168
 9381.5746014498782 13579.336915700131 -999863.78455613996
 8367.1431083889238 13647.487147881578 -999871.86029548431
 7168.9999050279903 14082.62974234262 -999875.13469427871
 5737.1525238136765 14965.123288176988 -999871.55683412089
 4202.3474682918004 16282.401759749435 -999858.60183762456
 2717.6178357308781 17739.724958148483 -999838.9453865597
 673.28042884879801 19560.399857097425 -999808.45037981891
 -2083.2005191254812 21532.165451076264 -999765.98568194162
 -4800.079445389606 22652.958712585882 -999731.86540136044
 -7739.4421786670191 23946.68522472784 -999683.27849449951
 -0 0 -0
 -0 -0 -0
 0 0 -0
 -0 0 0
 -0 0 -0
 0 0 -0
 0 -0 -0
 -0 -0 -0
 -0 -0 0
 0 0 0
 0 0 0
 0 0 -0
 -0 0 0
 0 0 0
 -0 -0 -0
 28746.156194167808 22524.281655670457 -999332.93513220921
 25404.278547589467 21202.49996420792 -999452.3883741257
 21824.889284011493 18545.095035286467 -999589.79269391962
 18837.910244400366 16108.501555026311 -999692.77746479481
 16461.13184441888 13872.618207921574 -999768.26395043079
 14649.492162880166 11972.308869480779 -999821.01208151411
 13182.278191586625 10507.740329677919 -999857.89737084322
 11949.349227154882 9423.1490280044891 -999884.20195312775
 10955.322208543565 8685.5665412361723 -999902.2661486296
 10152.826172423152 8240.2372611859992 -999914.5056506542
 9444.7085402435951 8055.0468869305059 -999922.95388206746
 8724.9758283744122 8135.1900853330453 -999928.84420796135
 7906.4068928294537 8516.3967592308127 -999932.47757850355
 6942.4318975788001 9241.3690573944295 -999933.19763736834
 5827.4010895979864 10312.257067667359 -999929.84691462817
 4498.399165480223 11673.29859562132 -999921.74619059346
 2684.5920092423466 13395.457719053171 -999906.67298415431
 231.44718978797303 15476.708171370232 -999880.20179238298
 -2820.1720884528577 17694.188109663857 -999839.46828304965
 -6515.9545380295531 20029.538600184562 -999778.15535243729
 -9608.5305403446582 21186.466514988035 -999729.36826796504
 -0 -0 -0
 0 -0 0
 -0 0 -0
 -0 -0 -0
 0 -0 -0
 0 -0 -0
 0 0 -0
 0 -0 -0
 -0 0 -0
 0 0 -0
 -0 0 0
 -0 0 0
 -0 0 -0
 30115.216601097032 20221.866679263749 -999341.85834331741
 26810.569630875769 18290.422703651042 -999473.18813132227
 22818.174652665391 15523.779939149044 -999619.09903818951
 19397.564000286675 12835.374179800003 -999729.45724356826
 16756.512604386226 10570.972252048849 -999803.71765211271
 14763.915066095828 8696.2914453707654 -999853.18988690432
 13272.646989028079 7183.6389773066212 -999886.10960096272
 12127.905179863395 6016.2673694395062 -999908.35502204287
 11229.675199810519 5155.6890096882671 -999923.65371849365
 10528.577457593301 4565.0763090369401 -999934.15239955275
 9972.0455221719021 4207.6244011247827 -999941.42538700881
 9492.9249581206368 4062.1664679625915 -999946.69016869413
 9020.8294287451299 4129.7336440810896 -999950.78375710384
 8493.1370225602423 4429.0083158181233 -999954.12420213281
 7858.8728867966565 4983.9539803505468 -999956.69822231331
 7066.0801497060575 5809.4998028808041 -999958.1592363544
 6021.8422447760322 6918.3617034193248 -999957.93595896813
 4563.4588584057574 8365.9643304782367 -999954.59171107819
 2534.5809993180824 10206.68508449247 -999944.698210228
 -193.15419620937729 12462.807688248238 -999922.31754070893
 -3690.5829238279312 15166.185229768225 -999878.1757910602
 -7486.0783580797561 17921.939486791092 -999811.36356607196
 -10235.239346834105 19647.691044340365 -999754.57393909385
 0 -0 -0
 -0 0 -0
 0 0 0
 0 0 -0
 0 -0 0
 -0 0 0
 -0 0 0
 0 -0 0
 -0 -0 -0
 -0 -0 -0
 0 0 0
 31346.699491811854 18936.666082887001 -999329.16854689841
 27981.565187212116 16596.527053249378 -999470.65354588802
 23829.675921908616 13480.067133302704 -999625.14691034984
 20111.991589033834 10632.030503685506 -999741.20037222188
 17179.634481483688 8275.5744331539554 -999818.17098254594
 14984.00099563667 6393.0769018206629 -999867.29533568106
 13367.812419645763 4896.4749699398753 -999898.65792688308
 12183.941596392662 3718.1053376614477 -999918.86033811467
 11310.868192786054 2812.7661459598771 -999932.07399669592
 10662.893022730013 2143.3773353810352 -999940.85257378279
 10182.744995489904 1679.309990652667 -999946.74439307605
 9820.943238691274 1395.8445213410985 -999950.79913562466
 9526.6389747291396 1279.0425260231339 -999953.80253292772
 9248.5142096409872 1328.137771241468 -999956.34956480726
 8937.0090331635929 1553.3394570501302 -999958.85765668983
 8542.5234973727911 1971.0731774613805 -999961.56934295548
 8006.0705402064095 2601.1929922313443 -999964.5676870367
 7243.2385103325405 3473.284880052895 -999967.73537350923
 6135.9253676365634 4640.4453282458589 -999970.40790567303
 4548.6611371376821 6173.5186000684462 -999970.59824274539
 2340.5853453176992 8156.7177674705963 -999963.99415954133
 -595.25802186079477 10677.156227471778 -999942.82036663545
 -4172.4785124898672 13679.935951083444 -999897.71965708456
 -7898.0941050632873 16747.467842552171 -999828.55651875131
 -10580.694010528339 18713.112679124119 -999768.90746217628
 0 -0 0
 0 0 0
 0 -0 -0
 0 -0 0
 0 -0 -0
 -0 -0 0
 0 -0 -0
 0 -0 0
 0 0 -0
 32907.025619698055 18087.327682799769 -999294.73942484031
 29301.476634563427 15596.231209785443 -999448.93868525606
 24918.779823266479 12284.590746876043 -999613.99712203979
 20958.991051429712 9259.9072004993213 -999737.45294089313
 17769.133732832637 6801.2684513906579 -999818.98393351014
 15344.710517082385 4871.7578487399942 -999870.39451851463
 13559.135186884954 3369.2105686661594 -999902.39437313471
 12265.907929673287 2196.7213004281389 -999922.35794495023
 11339.757901976343 1284.3885496953983 -999934.87799795158
 10683.053615281644 585.32604317480286 -999942.76324141503
 10224.27669203273 66.457358908452392 -999947.72850861773
 9910.9803691251072 -296.43295620312421 -999950.84108951327
 9699.6725578217247 -520.5801058154143 -999952.82156140963
 9549.4874751683201 -615.43160672888052 -999954.21321823471
 9420.0596635001166 -582.07628677523928 -999955.46083969774
 9270.4198267965694 -414.05955390343496 -999956.94300850807
 9056.1783686892559 -98.634746249574121 -999958.98711124214
 8723.7622680623135 383.7080207612052 -999961.87364321307
 8202.9660706076393 1063.3963982046494 -999965.78968269972
 7402.4965097921058 1987.9637715878719 -999970.6250912901
 6212.1324369171671 3224.0208861719184 -999975.50725000841
 4507.5337281322008 4857.5069495204789 -999978.04314191069
 2168.1447209569237 6983.8338491090481 -999973.26224916487
 -871.09611155180937 9655.5488733080183 -999953.00467947964
 -4530.4664076088311 12780.198846680911 -999908.06646989728
 -8379.078705674925 15894.752786302552 -999838.56090566248
 -11268.734445620927 17816.637011894134 -999777.76684100169
 0 -0 0
 0 -0 0
 0 0 -0
 0 0 -0
 0 0 -0
 0 -0 0
 -0 0 -0
 35326.031894020867 17167.177790139434 -999228.38204153557
 31190.375925300417 14817.102844085233 -999403.62912736437
 26364.179181845368 11524.108209585813 -999585.9767854095
 22047.774352548742 8442.1530112590735 -999721.27400522679
 18561.66444431094 5909.9204113318347 -999810.25072450051
 15884.533867380263 3929.150936263612 -999866.11271546548
 13892.832281977917 2402.4695407063409 -999900.6037358368
 12444.604348947631 1225.5366141650381 -999921.81188461231
 11411.687180671164 314.0612604234077 -999934.83525738586
 10690.666475595259 -391.82433378344126 -999942.77642473078
 10202.362021864596 -932.48698013419494 -999947.51976151578
 9887.5186880060992 -1335.2676755507653 -999950.22577847796
 9700.8995211690053 -1618.9154990068484 -999951.6346609405
 9605.0989265864337 -1795.8067407622473 -999952.25743670412
 9566.0485719628796 -1872.5058581848018 -999952.49108971679
 9550.4133060205913 -1849.8621309757696 -999952.68268842634
 9523.643213048912 -1723.2262264593926 -999953.1642588682
 9447.4334813724454 -1482.4184054702309 -999954.27317267156
 9276.0612557229906 -1110.6215718010967 -999956.35965141223
 8952.1287921671228 -581.67072524708317 -999959.75971498771
 8403.0970282118124 143.48288724637126 -999964.68306285481
 7539.5156296129335 1119.3247547629455 -999970.95098615973
 6254.605502734018 2416.6375786533335 -999977.51963372575
 4428.133095195647 4117.4288816968765 -999981.719041251
 1940.1814774218612 6294.3175084090517 -999978.30839620612
 -1296.9724656068545 8966.1062475412909 -999958.9625585546
 -5248.9344863259003 11997.012349570316 -999914.25651474891
 -9522.1676780481102 14880.418927016111 -999843.93855004595
 -12963.330464783714 16418.919573062456 -999781.16162654012
 0 0 0
 0 0 0
 -0 0 0
 0 -0 0
 -0 0 -0
 39040.237246980047 15405.019823484687 -999118.88443765161
 34133.733750698964 13793.88933834996 -999322.07862988685
 28531.748150673713 10851.206051903251 -999533.98675316968
 23613.004610990898 7890.4664618859169 -999690.03523705038
 19681.214973793438 5375.5814732833442 -999791.8547882752
 16668.574296307608 3376.7526130079823 -999855.36762709776
 14417.618942671312 1830.7930477920429 -999894.38465311914
 12769.046353245269 644.01110279857619 -999918.26501215983
 11585.391089496617 -269.20467831071289 -999932.85086656909
 10755.744435223147 -975.36721432991089 -999941.67960958683
 10194.224202488993 -1521.8195915845138 -999946.87951812707
 9835.6962789995578 -1940.7516508402437 -999949.74501808686
 9630.7628844975097 -2253.7246892846692 -999951.08336922538
 9540.8256502270451 -2475.0497728973419 -999951.42220736574
 9533.6912410109981 -2613.7694218874653 -999951.13727658219
 9580.2262535572336 -2674.5296629994523 -999950.53185445745
 9652.0135340369125 -2657.878433844041 -999949.88590277336
 9719.4557104537089 -2560.2743575297468 -999949.48731218756
 9749.711229493374 -2373.7260796833457 -999949.65301031037
 9704.1482642503288 -2084.7757433417537 -999950.74039502826
 9535.3737809003433 -1672.7270351095083 -999953.13821754896
 9184.1130798477534 -1107.4523438096564 -999957.2118927103
 8575.998533760081 -347.50097667360046 -999963.16506770393
 7618.0595640448291 660.7160667970461 -999970.76388400362
 6195.4415743630252 1980.6619152913838 -999978.84651730291
 4170.0908721346359 3676.6731558971014 -999984.54608889984
 1386.6053888956187 5792.7478071491951 -999982.26054182509
 -2295.3286728510443 8303.7226335163105 -999962.88913974667
 -6890.2194216103653 11003.858458689283 -999915.71643581206
 -11979.933594641101 13275.519947747891 -999840.10809788248
 -16129.866439072244 13845.646297266774 -999774.03721404402
 0 0 0
 -0 -0 -0
 0 -0 -0
 0 0 -0
 37071.720723087798 12304.387688776909 -999236.85358689306
 31577.471053664216 10070.621743354744 -999450.57201422285
 25917.346917779934 7413.046234665203 -999636.60290841002
 21323.053404385544 5018.582426501388 -999760.04182200739
 17818.046362797788 3057.8029758065722 -999836.57017773378
 15208.007746677207 1517.4625344664375 -999883.2000828064
 13293.179620014767 328.36425453155186 -999911.5878679005
 11909.256227493879 -585.77754796392537 -999928.91071354272
 10928.930381863205 -1290.5318094903503 -999939.44467070478
 10255.650570715919 -1836.2010992527842 -999945.72352547944
 9816.8568218185846 -2258.8057433468598 -999949.26227221836
 9557.9437266119803 -2583.0601595346893 -999950.98555475764
 9437.1403349130196 -2825.5073619061291 -999951.47726799571
 9421.2610017854422 -2996.9729394427022 -999951.12780292227
 9482.2899761046447 -3104.1361898756218 -999950.22401883756
 9594.7819303963388 -3150.3563204141537 -999949.00640720804
 9733.9200965087221 -3135.9870216594236 -999947.70682518918
 9873.8950517106186 -3058.3499177257336 -999946.5749190246
 9986.2513429089522 -2911.3657546231266 -999945.89790326101
 10037.935416994735 -2684.789426760522 -999946.01442192786
 9988.9012543895642 -2363.0382659607462 -999947.31756322226
 9789.1318641296893 -1923.7939960739548 -999950.23471871193
 9374.8084645409126 -1336.6900672886052 -999955.16210774041
 8663.1933616159768 -562.57011570878126 -999962.31558776449
 7545.947655335598 445.76939746246501 -999971.42957367911
 5881.2603194300418 1739.6900098354276 -999981.19195099117
 3487.7309943573187 3364.673194034478 -999988.25728445838
 151.9371879506237 5336.937474142399 -999985.74690516887
 -4309.9462937017288 7591.3516369815561 -999961.8971457209
 -9790.9745657512194 9871.0728695919661 -999903.34469760419
 -14882.308043252649 11530.078676577023 -999822.771391519
 -0 0 -0
 -0 -0 -0
 0 0 -0
 41433.072765659424 10624.754950817869 -999084.78872587741
 35830.2205376403 9336.9097556561519 -999314.27359586861
 29283.128673506428 6998.3526689164064 -999546.65795800253
 23744.434444584746 4753.3905451859846 -999706.76056093175
 19512.233307877632 2865.7777566272048 -999805.5111216323
 16380.808905308713 1357.5599314351127 -999864.9039398476
 14093.599455929092 181.33920453814966 -999900.66385139909
 12438.694688846872 -726.64101388004394 -999922.3724206168
 11256.880996918037 -1426.4352453180943 -999935.62188408512
 10431.616907229867 -1967.3848875790047 -999943.65379525523
 9877.8455295710519 -2386.9391244940684 -999948.36401151738
 9533.0263814959817 -2712.0129195712639 -999950.88199067744
 9350.4088447908689 -2961.2117276816421 -999951.89938293479
 9294.0161371080776 -3147.0380189794728 -999951.85754902754
 9334.886897933211 -3277.6434958022951 -999951.05727216334
 9448.2580122908294 -3358.017597781165 -999949.7258054259
 9611.4743554311808 -3390.6584734446396 -999948.06014904147
 9802.4002861621375 -3375.8548331842867 -999946.2568322235
 9998.0822977511671 -3311.6627972458773 -999944.53408170852
 10173.39353082717 -3193.624341668532 -999943.14979784307
 10299.423973435487 -3014.2188742976041 -999942.41651726782
 10341.376881964901 -2762.0829276734944 -999942.71177007235
 10255.692986306396 -2421.0645648988971 -999944.47806252877
 9985.9875743006796 -1969.2649402703721 -999948.19968224375
 9457.2549547335075 -1378.2636203234993 -999954.32931615144
 8567.7665262168557 -612.91136169635411 -999963.10817770427
 7178.5092589912765 367.66875398028083 -999974.16657856992
 5101.8745244064603 1606.5933475480597 -999985.69476475671
 2097.9271399045733 3140.4348310989371 -999992.868159962
 -2091.7265452939482 4978.5303502921206 -999985.41935150768
 -7571.1417074472192 7048.7501391168089 -999946.49503597047
 -13691.49045047294 8998.9112617146529 -999865.77233414096
 -18216.50201152642 9556.0852251251272 -999788.39775706257
 -0 -0 0
 0 0 -0
 39733.632224988709 8151.7190711820085 -999177.05535425211
 33637.862494338326 6570.135891986577 -999412.49117727822
 27166.805066471243 4551.3828304685039 -999620.5528183236
 21970.999515020016 2746.2488784595098 -999754.83659615717
 18099.857930205853 1280.3956187132812 -999835.36431252817
 15282.563235822703 129.00037142893808 -999883.20648956147
 13250.26803167351 -763.20309856863196 -999911.92008002347
 11795.170468282369 -1451.4124336928501 -999929.38118427724
 10767.185828746706 -1982.607741034122 -999940.06669193658
 10059.761197578608 -2393.8386139425461 -999946.53394135949
 9596.9591947715253 -2712.8388409070976 -999950.26820319262
 9323.7931127589327 -2959.5338162446487 -999952.1528761168
 9199.3718229265833 -3147.7756855227385 -999952.73041594203
 9192.0865774314443 -3286.9289475499954 -999952.34968594741
 9276.2110390697708 -3383.1283771169892 -999951.25198738684
 9429.4849250353873 -3440.1477350268833 -999949.62382992543
 9631.3712666604461 -3459.9183494489971 -999947.63145503716
 9861.7461042327996 -3442.7518630953286 -999945.44522358046
 10099.784551330942 -3387.3362683007435 -999943.25854271452
 10322.822046827521 -3290.5292345074204 -999941.30415857246
 10504.953220379975 -3146.9783165258632 -999939.86943481409
 10615.115503705156 -2948.572825191261 -999939.31077897782
 10614.322428163434 -2683.7679260587547 -999940.06497845158
 10451.608138563983 -2336.8038663799966 -999942.64997299109
 10058.099336961865 -1886.8795878411627 -999947.63579056913
 9338.5901408717364 -1307.3405673820762 -999955.53980905644
 8160.2799285171222 -565.06139788974781 -999966.54470892414
 6339.821403620128 379.49078372864307 -999979.83112226566
 3634.9419225707011 1569.7119027187732 -999992.16157016042
 -237.02341794360055 3041.1488037400977 -999995.3476061041
 -5483.5755336072943 4775.3794309380137 -999973.562725864
 -11825.380978267282 6544.326653191767 -999908.66190536378
 -17307.680924585224 7641.6784572863935 -999821.00844669598
 0 0 0
 -0 -0 0
 37708.520145890063 6129.16317946664 -999269.98397186247
 31576.063072144374 4419.7217903707196 -999491.57990458293
 25407.484709440287 2679.4078111079102 -999673.58697452897
 20573.393040606439 1242.6648504563027 -999787.57307883468
 17018.195997457213 116.55693072056363 -999855.17322233925
 14455.012337686261 -752.83814388471808 -999895.23743892612
 12620.986202197413 -1421.3672828724073 -999919.3419583058
 11318.332547501916 -1935.642230291443 -999934.07214550942
 10406.785869317384 -2332.2276252746387 -999943.12814388319
 9788.3930031946002 -2638.8425214584922 -999948.61061584658
 9394.3548972739864 -2875.8939079539264 -999951.73650046438
 9175.3633847622077 -3057.9987136113341 -999953.22958157642
 9094.8877550590914 -3195.3639382578795 -999953.53525352618
 9124.5883862153278 -3294.9523867305679 -999952.94148052356
 9241.1927829599244 -3361.3794752464091 -999951.64957310387
 9424.3512029529829 -3397.5424992442149 -999949.81789556297
 9655.1395154843412 -3404.9969608689471 -999947.59076495247
 9914.9463709088795 -3384.1292219581314 -999945.11924798705
 10184.530047856037 -3334.1527136171808 -999942.57773803524
 10443.028326943393 -3252.9661067179159 -999940.17889615335
 10666.706022316115 -3136.8767922397979 -999938.18878299883
 10827.174886624116 -2980.2089048969433 -999936.94333135698
 10888.762858299706 -2774.780169694784 -999936.86572624452
 10804.591567202289 -2509.2442566659247 -999938.48035482981
 10510.816151834624 -2168.2433109920694 -999942.40907402593
 9918.4132914640086 -1731.3183714545503 -999949.31252262823
 8902.1452679890444 -1171.4934042159873 -999959.68889392319
 7287.4638863345972 -453.6244676154422 -999973.34319218097
 4839.9712672584301 466.69101191140328 -999988.17836894013
 1273.724303277739 1640.0861240973427 -999997.84386962804
 -3669.0261489993986 3104.1326571450832 -999988.45123709529
 -9886.2538495920144 4811.5762481803185 -999939.55353252694
 -15679.811733534312 6382.9610740527523 -999856.69038714131
 -0 0 -0
 43630.917583292357 5566.9894152482393 -999032.20751870179
 37362.280137612528 4352.6010049677252 -999292.30702903448
 30155.119977865645 2635.5383751810873 -999541.75634467276
 24091.734592419238 1199.5046790936422 -999709.03242536169
 19526.204321850037 93.44019946693895 -999809.34113145317
 16216.160690919058 -747.33493641996029 -999868.23012982029
 13848.260792569947 -1386.5086235548488 -999903.14694317151
 12164.433516154089 -1873.9569391350115 -999924.2545526243
 10976.128851586811 -2247.0509284972445 -999937.23570910096
 10151.495916382984 -2533.4700265194065 -999945.26283206337
 9599.4415746278719 -2753.538939279495 -999950.13312903012
 9256.5851501567522 -2922.0001485840658 -999952.88766345871
 9077.8204741245172 -3049.3810439361528 -999954.1461740575
 9029.819976057137 -3143.0783751632557 -999954.29066009191
 9086.6632041727098 -3208.2038319572912 -999953.56891207048
 9226.9156542926667 -3248.2206340086336 -999952.15540055779
 9431.6772864191407 -3265.3794906326102 -999950.18913961248
 9683.2487650106832 -3260.9860413676424 -999947.79896922281
 9964.1614272528786 -3235.516244157754 -999945.12195504259
 10256.349870255559 -3188.6156812228323 -999942.31834510167
 10540.272634500017 -3118.990074278202 -999939.58545189467
 10793.762627316863 -3024.2088755432815 -999937.1724508605
 10990.365170048752 -2900.4078391176649 -999935.39766716701
 11096.84216756967 -2741.8881368177663 -999934.66893760278
 11069.440391375201 -2540.5601003828997 -999935.5044420606
 10848.403833132874 -2285.1775356989542 -999938.54316048021
 10350.170524472001 -1960.2399587493319 -999944.5141753708
 9456.8631787621507 -1544.4400488343431 -999954.09016802046
 8003.6123236936846 -1008.534775428981 -999967.46199432842
 5767.2450521294177 -312.8142743274617 -999983.32037676428
 2468.7551221229546 594.69759587016836 -999996.77578626049
 -2172.0938291266389 1774.4188398263827 -999996.06671535375
 -8215.9641973620728 3261.8661813523777 -999960.92831736291
 -14840.787331598782 4870.3144543910394 -999878.00809323415
 -19628.726401262204 5509.0086932567347 -999792.16036288359
 42824.68451747638 2988.8953160102137 -999078.13152964588
 36192.212089784502 2114.9881630855753 -999342.60922324238
 28966.418836749966 958.64929139343633 -999579.92555438518
 23114.11893282814 -40.132427109793078 -999732.83225837268
 18772.044911911966 -815.68246210860411 -999823.45691224223
 15647.915542153876 -1402.9887642042315 -999876.5795645545
 13424.544977574358 -1846.4032429086906 -999908.18197833037
 11850.688822958924 -2182.0459633218852 -999927.39728934085
 10745.615405802031 -2436.8129342533812 -999939.29500358878
 9984.0424720050669 -2630.2793350748298 -999946.69884276157
 9480.0049711099782 -2776.6016197729609 -999951.20880430599
 9174.0577448866898 -2885.967445280523 -999953.75285880012
 9024.0993183662413 -2965.6636530037217 -999954.88421757775
 8999.0916833427309 -3020.8660004182416 -999954.94434373523
 9074.8597634155376 -3055.2310606555943 -999954.15519084688
 9231.3204597161857 -3071.3214839216143 -999952.6737335684
 9450.6563524061203 -3070.8977750112667 -999950.62612179213
 9716.0944657814234 -3055.086663173513 -999948.13063169061
 10011.025852096218 -3024.4550972629768 -999945.31452112587
 10318.261399812169 -2978.9958401915137 -999942.32786969724
 10619.223389582779 -2918.0486943523238 -999939.35670440493
 10892.876501840236 -2840.1505835171693 -999936.63738567883
 11114.154343276807 -2742.8231062322034 -999934.47410049906
 11251.590335925282 -2622.2659763163074 -999933.26049094996
 11263.761500208711 -2472.9341747878298 -999933.50392585283
 11094.068862521402 -2286.9242845316344 -999935.84374868288
 10663.305352081765 -2053.1046492594605 -999941.03760185151
 9859.6053291626085 -1755.8966141285416 -999949.85124746803
 8526.0891241666523 -1373.748415043983 -999962.70861444564
 6448.9581988248938 -877.73186734133537 -999978.82003816403
 3355.837425375968 -232.17064524335169 -999994.3422099778
 -1046.4570583961558 595.88771088047508 -999999.27492246754
 -6915.2106874961246 1595.3336970280145 -999974.81706868135
 -13802.241128255149 2581.4749555475355 -999901.41220366885
 -19491.765463351512 3051.4274759250752 -999805.36099256878
 42010.3152139335 658.92603149976867 -999116.95973600156
 35273.797257220889 177.92726896064502 -999377.67013724253
 28135.59733517086 -476.56146408984796 -999604.00211872114
 22453.612684046999 -1074.5552720690036 -999747.30837767315
 18273.190985666253 -1551.6920960475923 -999831.82723038003
 15279.642159287396 -1915.1102199615902 -999881.42541419831
 13156.541750134089 -2188.0347910522887 -999911.05500085861
 11658.512197608243 -2392.1734861348205 -999929.17579164112
 10610.635064602819 -2544.2908417484146 -999940.46873183327
 9892.2792500231808 -2656.6500621855116 -999947.54113487701
 9421.0033091118075 -2738.0989804083274 -999951.87259718846
 9140.0129949645889 -2795.0163384660646 -999954.32297986455
 9009.2191974010657 -2832.0128725781442 -999955.40584195172
 8999.1263737041081 -2852.4423593722058 -999955.43865569145
 9086.7596714076954 -2858.766327945048 -999954.62809757364
 9252.9884332893544 -2852.8136631530469 -999953.12073079543
 9480.7820510026377 -2835.9458251429965 -999951.03489269805
 9754.0518622809923 -2809.1517888741537 -999948.48224220774
 10056.829642793633 -2773.0750357634779 -999945.58363562031
 10372.568901722623 -2727.994726256808 -999942.48227543198
 10683.386496808587 -2673.7577736598346 -999939.35629733442
 10969.041724758114 -2609.6776111709778 -999936.43283281068
 11205.432041048041 -2534.3830290206392 -999934.00542007538
 11362.313032087712 -2445.6176158809908 -999932.45611743093
 11399.880406247097 -2339.9505719925842 -999932.28138611652
 11263.737261828292 -2212.3782180434164 -999934.11463231756
 10877.703751203573 -2055.7649817072793 -999938.72281827405
 10133.970998212033 -1860.1464018236006 -999946.91983483348
 8880.6328574695563 -1612.0542176920942 -999959.26699103613
 6908.4682742759869 -1294.576381333273 -999975.29826396005
 3944.3845349075414 -890.2282284166256 -999991.82462875254
 -325.32578970217156 -391.9374626868248 -999999.8702740696
 -6132.6095831671737 168.02124036155979 -999981.18125720904
 -13188.47609415827 669.77120064088695 -999912.80395085097
 -19270.008496572565 918.48341342882179 -999813.89426270791
 41467.121043130901 -1147.0945636653928 -999139.21054398443
 34723.233261516536 -1376.3422590477694 -999396.01898039004
 27657.75364943489 -1676.5303839347753 -999616.04524384195
 22082.766677820771 -1951.8492904207435 -999754.24065127142
 18001.819835432641 -2170.9837485130975 -999835.59714193828
 15087.989918192736 -2335.4060957193155 -999883.4424264644
 13025.742183057402 -2455.5084118025566 -999912.14640038251
 11573.60305503276 -2541.4237882456468 -999929.79397428338
 10560.300031164654 -2600.9883757189996 -999940.85571233719
 9867.9842959088219 -2639.9074972313751 -999947.825526083
 9416.2508182315432 -2662.3133477793181 -999952.12200793193
 9149.8168407392604 -2671.2403462908374 -999954.57163152844
 9029.7470462722504 -2668.9701255474702 -999955.66915076273
 9027.4555166457812 -2657.2694642287693 -999955.72100262996
 9120.7030775903786 -2637.5588865409159 -999954.92701345799
 9290.9746931520822 -2611.0207055526976 -999953.42909563868
 9521.7714495165474 -2578.6653619244598 -999951.34199290653
 9797.4867432995725 -2541.3536287772558 -999948.77407557657
 10102.607351419205 -2499.7921481212966 -999945.84271545382
 10421.040583898912 -2454.4983405268486 -999942.68703313463
 10735.374952093889 -2405.7521476710508 -999939.48020929832
 11025.889486287142 -2353.5254940463883 -999936.44331966667
 11269.082848335307 -2297.4017251136229 -999933.86267146235
 11435.450884113525 -2236.4654580634319 -999932.11203827825
 11486.143303391693 -2169.1661607908491 -999931.6792812302
 11368.037564223016 -2093.1262029686413 -999933.19104059995
 11006.652819316778 -2004.9012180861996 -999937.41502397077
 10296.332902000146 -1899.7044411428233 -999945.18682366167
 9087.4656619099278 -1771.2541518339578 -999957.13939477084
 7171.9803301865222 -1612.176466847922 -999972.98142758978
 4273.1642066062532 -1416.1030646887812 -999989.86730855098
 61.105534117516527 -1183.5968643146223 -999999.29768204165
 -5734.8103930618372 -933.85982206665665 -999983.11978532362
 -12873.745791730822 -716.39529803217852 -999916.87326850684
 -19093.246942974096 -595.29244480855596 -999817.53012641252
 41240.052212287766 -2699.810374126756 -999145.61957578117
 34520.738770335491 -2742.6831767567701 -999400.21827281103