# OOMMF OVF 2.0
#
# Segment count: 1
#
# Begin: Segment
# Begin: Header
#
# Title: Oxs_TimeDriver::Magnetization
# Desc: Oxs vector field output
# Desc:  MIF source file: /mnt/gpfs/work/plgrid/groups/plggspinsym/MF/switching-obrazki/p-ap/Anisotropy.mif
# Desc:  Iteration: 26000, State id: 182150
# Desc:  Stage: 0, Stage iteration: 26000
# Desc:  Stage simulation time: 3.82818e-09 s
# Desc:  Total simulation time: 3.82818e-09 s
# meshunit: m
# meshtype: rectangular
# xbase: 1.0000000000000001e-09
# ybase: 1.0000000000000001e-09
# zbase: 3.4999999999999998e-10
# xnodes: 35
# ynodes: 35
# znodes: 5
# xstepsize: 2.0000000000000001e-09
# ystepsize: 2.0000000000000001e-09
# zstepsize: 6.9999999999999996e-10
# xmin: 0
# ymin: 0
# zmin: 0
# xmax: 7.0000000000000005e-08
# ymax: 7.0000000000000005e-08
# zmax: 3.4999999999999999e-09
# valuedim: 3
# valuelabels: Magnetization_x Magnetization_y Magnetization_z
# valueunits: A/m A/m A/m
#
# End: Header
#
# Begin: Data Text
 -0 0 -0
 0 0 -0
 -0 -0 0
 -0 0 0
 0 0 0
 -0 0 -0
 0 0 0
 0 -0 0
 -0 0 0
 0 0 0
 0 0 0
 -0 -0 0
 0 0 0
 13557.350546725462 29618.026963496966 -999469.34456487594
 11429.583825948304 29131.757112719792 -999510.23273455841
 9746.3644908205624 28502.211286814556 -999546.2132042587
 8592.5344925023019 27934.243177067685 -999572.83196829644
 7628.9232502245732 27507.132381509644 -999592.49556916358
 6513.9579090050529 27270.061928024064 -999606.87876524834
 4930.3548557331642 27260.155632581602 -999616.21411213803
 2685.477734520884 27462.713343062282 -999619.22129637632
 342.88700212397589 27694.756244814187 -999616.36786571506
 0 0 0
 -0 0 -0
 -0 0 -0
 -0 0 0
 0 -0 0
 -0 0 0
 -0 -0 0
 0 0 0
 0 -0 0
 0 -0 -0
 0 -0 0
 -0 -0 0
 0 0 -0
 -0 -0 -0
 -0 -0 -0
 -0 -0 -0
 -0 0 -0
 0 0 -0
 0 0 -0
 -0 -0 0
 0 0 0
 0 0 -0
 0 0 0
 17727.91450828678 28812.298421256251 -999427.62244540325
 16031.886891244254 27317.226032941442 -999498.24800475361
 14788.376237454942 25167.615966958623 -999573.85671835125
 13085.510222361512 24359.886117612434 -999617.60957405984
 11031.727333873452 23286.398616556442 -999667.96719285846
 9513.5114091432442 22481.891249835298 -999701.98442660831
 8475.761025320875 21900.921123824774 -999724.21753650112
 7623.4048748815112 21524.854583975386 -999739.24817086814
 6666.5400394075386 21391.564173235907 -999748.94759940857
 5354.8001562482386 21588.661892787975 -999752.59729243291
 3576.9616285125535 22242.435770117685 -999746.20749294211
 1759.2236746899475 23356.494872467669 -999725.65200625651
 1048.8346706184377 23918.788048023751 -999713.35467930394
 -314.0618778439146 25026.114139809488 -999686.74842482468
 -2500.6848323810768 25705.569476350563 -999666.42950199428
 -0 0 -0
 0 -0 0
 -0 0 -0
 0 -0 -0
 -0 0 0
 -0 0 0
 -0 0 -0
 -0 0 0
 -0 0 -0
 -0 0 0
 0 -0 -0
 -0 0 -0
 -0 0 0
 -0 0 0
 -0 -0 0
 0 0 -0
 0 -0 -0
 -0 -0 0
 21677.994672488923 27218.778929493441 -999394.41794547124
 19425.11457787031 25343.334768517132 -999490.06013389013
 16978.388418417995 23903.423763938365 -999570.08791733789
 14762.513103105553 21756.394307063329 -999654.30400395731
 13162.083337893213 19537.963638338602 -999722.47525954596
 11633.060055804777 17807.537158514933 -999773.75617390859
 10142.31604109923 16497.806519632562 -999812.46031711518
 9006.1632546682285 15621.582361472321 -999837.41437693476
 8206.5141473930344 15055.951715749359 -999852.9749135531
 7562.9558844875046 14742.092720911856 -999862.72677827987
 6877.6244680485697 14699.71542979219 -999868.29965148878
 5990.3323193848773 15010.33889900439 -999869.39429349499
 4850.8465987059717 15786.491889311805 -999863.6186806201
 3634.3364108495748 17043.145328818922 -999848.14986884571
 2545.9235651548438 18453.951007094562 -999826.46992637077
 896.0089019685638 20070.757460697521 -999798.16056192166
 -1521.4600643041622 21784.700389009009 -999761.52755956433
 -3864.8263240066863 22748.266284273333 -999733.75430588785
 -6430.3294670015866 23615.582031585436 -999700.4327038452
 -0 0 -0
 -0 -0 -0
 0 0 -0
 -0 0 0
 -0 0 -0
 0 0 -0
 0 -0 -0
 -0 -0 -0
 -0 -0 0
 0 0 0
 0 0 0
 0 0 -0
 -0 0 0
 0 0 0
 -0 -0 -0
 23737.335602406216 23761.170515682606 -999435.81368401216
 20671.035391681606 22610.898808539485 -999530.61761554144
 17513.745896584289 20151.518861949229 -999643.52896031202
 14926.930668510107 17758.694088472424 -999730.87154748291
 12888.851142178099 15521.440362037216 -999796.46048849472
 11388.783524504215 13548.668658896362 -999843.35232445446
 10173.474096508262 11954.491610680834 -999876.78768693202
 9155.9405709986549 10761.061856560993 -999900.17916789046
 8395.9612157897445 9943.6953680112219 -999915.31179279927
 7868.3395927482343 9425.2978469979007 -999924.62365547777
 7469.0686407601361 9160.0016528928591 -999930.15125225543
 7074.8966242575143 9154.7938984398115 -999933.0655531066
 6583.441230097932 9458.8551115309401 -999933.59197576158
 5945.8311332326139 10132.83119643035 -999930.98403043789
 5172.4773397339986 11184.553803763045 -999924.07273471553
 4209.4211588241733 12527.882558326173 -999912.66265215015
 2746.4356453029291 14179.437173073955 -999895.69488657208
 606.16555797165506 16158.355742562428 -999869.2615052294
 -2138.0568648318172 18239.65791950807 -999831.35757577734
 -5540.0407417301303 20312.204800769574 -999778.33657501894
 -8368.8487135938649 21273.328863885679 -999738.66977838671
 -0 -0 -0
 0 -0 0
 -0 0 -0
 -0 -0 -0
 0 -0 -0
 0 -0 -0
 0 0 -0
 0 -0 -0
 -0 0 -0
 0 0 -0
 -0 0 0
 -0 0 0
 -0 0 -0
 24970.273419752997 21769.559146650317 -999451.13524369139
 21912.509730510948 19927.888843592835 -999561.26433728286
 18207.527901264351 17279.104020740913 -999684.90960500401
 15101.112139235674 14646.723600961788 -999778.69046100159
 12765.713397557116 12339.567580097542 -999842.37339362048
 11051.131008281083 10362.867288517935 -999885.23515701457
 9818.557300911596 8706.6383215988899 -999913.89148349443
 8911.2045365507311 7374.4014075559289 -999933.10208112805
 8241.9141207903322 6362.2240872963839 -999945.79500905401
 7787.2790461717013 5646.7907888572727 -999953.73494919436
 7510.6673650164685 5186.8880842683548 -999958.34216617921
 7345.2029984109604 4955.0108821613367 -999960.74715964205
 7211.3806813773508 4951.8088132185349 -999961.73705704638
 7035.8641254414415 5201.5696329542407 -999961.7194119792
 6761.4958495066221 5734.8866237844613 -999960.69585223671
 6335.0367400246141 6565.1442943351749 -999958.38222892897
 5655.8147507881094 7688.5983481827043 -999954.44756996038
 4536.7924564361347 9140.1881853698451 -999947.93588173564
 2802.3891198915849 10972.65643190328 -999935.87165680202
 323.60730460214199 13197.006696850705 -999912.86334988009
 -2961.8838705363187 15815.084959438494 -999870.5467867644
 -6525.3143592611395 18435.348487546649 -999808.76081311447
 -8994.2637349604029 19978.961189229485 -999759.94335123536
 0 -0 -0
 -0 0 -0
 0 0 0
 0 0 -0
 0 -0 0
 -0 0 0
 -0 0 0
 0 -0 0
 -0 -0 -0
 -0 -0 -0
 0 0 0
 25943.50810728296 20945.979454028064 -999443.94556763337
 22848.784056039185 18597.184274739506 -999565.94470010418
 18962.660290175176 15491.469009715105 -999700.17100260628
 15483.371956368752 12608.061547280808 -999800.6311144639
 12784.095474542535 10161.588312821994 -999866.64562123409
 10821.503697147589 8132.7754412233389 -999908.37231286126
 9435.1204115173387 6451.9218456608296 -999934.67346988106
 8480.1608135881397 5069.8493366800967 -999951.19055895892
 7838.2166451198082 3959.9612931777328 -999961.43978974549
 7432.2075889911857 3105.0765381087162 -999967.55986884236
 7218.0711780022484 2485.9681609028203 -999970.85928079556
 7155.7103215979087 2079.8289827893655 -999972.23467514117
 7195.4407069870485 1870.8142903744779 -999972.36246154481
 7280.206598964327 1857.0460722793291 -999971.7745875438
 7351.4293293435021 2049.4051105876761 -999970.87778870272
 7350.2265516197749 2464.5933264374066 -999969.94952317211
 7207.9751686250938 3118.5989187518935 -999969.15924179985
 6826.2570401283783 4031.6306906955488 -999968.57359058829
 6066.5849281137343 5246.9470078109107 -999967.83252983051
 4774.3797679447434 6831.2024222035843 -999965.26938254118
 2798.6863736269111 8863.0809991889564 -999956.80564201588
 38.845268857544717 11418.167305286252 -999934.80984833871
 -3374.1277387966038 14420.428640813045 -999890.32723585132
 -6872.2073687948505 17394.966725964889 -999825.07865050226
 -9258.7657298895083 19171.633444390762 -999773.33617587201
 0 -0 0
 0 0 0
 0 -0 -0
 0 -0 0
 0 -0 -0
 -0 -0 0
 0 -0 -0
 0 -0 0
 0 0 -0
 27137.629562956576 20689.062151584592 -999417.58628162625
 23823.604716070116 18104.290480912201 -999552.2350155171
 19718.075034840513 14705.868635787194 -999697.42169547849
 15980.99287096532 11543.566041870743 -999805.65809055872
 12978.284524932578 8902.1608375475989 -999876.15016221476
 10733.969418352202 6754.304117541692 -999919.57740430988
 9136.1693344791875 5005.3609635116218 -999945.73691351723
 8043.2395943465135 3571.0380994333636 -999961.27624209563
 7333.1040772160641 2396.3046168476567 -999970.24121159501
 6911.8382993495597 1449.5218585414962 -999975.06237791013
 6713.6892769904844 711.6729612509173 -999977.20968924509
 6693.1668664522276 167.82978216166384 -999977.58642404666
 6811.3941942322681 -195.70385406616293 -999976.78303505236
 7027.1637351911704 -388.6428636807729 -999975.23365659569
 7294.646160463154 -413.8375705981237 -999973.30808169988
 7563.6923187400889 -267.08392009696894 -999971.35920219577
 7778.466002459274 61.148934543351523 -999969.74540605803
 7871.925944028616 585.17336100803743 -999968.8446917081
 7757.4460511748293 1328.4362192637398 -999969.02816435986
 7324.5864254674516 2332.1022300255254 -999970.4554300016
 6444.9033990885237 3659.2528334165791 -999972.53616730776
 4982.0246855546784 5393.3454973115586 -999973.04526391055
 2816.751592553981 7624.6206268568203 -999966.96498972527
 -89.977361882352412 10389.496222593909 -999946.02367943607
 -3603.1648046113346 13551.797840159783 -999901.6781557526
 -7223.735492566203 16583.436249914514 -999836.39025976567
 -9805.4203705146138 18300.919719043079 -999784.4418017288
 0 -0 0
 0 -0 0
 0 0 -0
 0 0 -0
 0 0 -0
 0 -0 0
 -0 0 -0
 29083.782202553102 20438.177015583307 -999368.00755931437
 25260.74633334333 17922.459796397645 -999520.2249727262
 20733.197217515317 14463.639361046944 -999680.41776838514
 16648.956099647789 11160.986843375396 -999799.1021367613
 13337.39494298044 8358.505477937153 -999876.11696765258
 10807.159895396944 6073.0458790934899 -999923.15875208413
 8961.8532470646769 4219.9636284181379 -999950.93734310428
 7676.3952178627969 2705.6568367628856 -999966.87564015912
 6831.2254460566719 1457.939204459384 -999975.60408851039
 6327.7643693518976 430.3493196606579 -999979.8868965063
 6090.5171925642589 -404.13135666785604 -999981.37096556649
 6063.8592937202111 -1061.2359207775589 -999981.0515148706
 6205.6655088600546 -1551.7260800251076 -999979.54072159145
 6479.4596057400895 -1884.3551432508875 -999977.23264527961
 6848.4356274331831 -2065.7688117365392 -999974.41543705168
 7272.4338950505762 -2099.4017208514524 -999971.35169846588
 7706.5135202845195 -1984.7973822295291 -999968.33461300819
 8099.2240352988474 -1717.218268518036 -999965.72627837805
 8389.4704756106294 -1286.3422094242746 -999963.98040572403
 8502.5527489862598 -672.84787388601364 -999963.62627472042
 8347.6276832800759 156.5221923098367 -999965.14569902117
 7818.3121631111435 1252.6184984510044 -999968.65197955945
 6795.8630963642136 2684.1243839782624 -999973.30550423532
 5157.9313229711079 4529.8408771765025 -999976.43786546018
 2798.500579609763 6852.20870001599 -999972.60744004254
 -335.26328276549276 9643.3856999003001 -999953.44527171575
 -4151.2180182388411 12718.047623338161 -999910.50532215892
 -8186.6382300671057 15506.000941312597 -999846.25962659763
 -11289.214836030944 16811.183265132713 -999794.94784961396
 0 0 0
 0 0 0
 -0 0 0
 0 -0 0
 -0 0 -0
 32347.513876974212 19241.953119196249 -999291.44176568312
 27679.357881520325 17460.529888998106 -999464.34806013061
 22387.870977938826 14318.464587489185 -999646.82003442186
 17722.765061733862 11095.053834382827 -999781.37779165443
 13970.306875029555 8256.4643118911117 -999868.321991893
 11088.234652947513 5887.4122035125711 -999921.19160953257
 8951.0964855076163 3940.8283516525844 -999952.172728081
 7425.9196885391484 2337.6401628512231 -999969.69511843123
 6392.8840569714885 1005.923233490233 -999979.05935668596
 5751.4242092143795 -106.87361986344459 -999983.45471192419
 5421.4143560383536 -1033.9655251425174 -999984.76947485213
 5340.9346407461098 -1794.3119978473117 -999984.12730483769
 5462.2213809037667 -2398.5202867538046 -999982.20546068705
 5746.6554636465107 -2853.4691369372063 -999979.41662059561
 6159.6118440982609 -3164.8537106792778 -999976.02115396736
 6666.3447898984114 -3337.7930666533639 -999972.20910612622
 7229.3719261212209 -3376.3584782573707 -999968.16768584191
 7806.8766860989017 -3282.7249550479601 -999964.13755358104
 8351.2772477459566 -3056.062188826912 -999960.45754431188
 8807.3871340382011 -2690.7984230745674 -999957.59386871895
 9110.2135216158622 -2173.9621797898458 -999956.13798707759
 9182.9617069647702 -1481.9649543755506 -999956.73756126175
 8935.5971320939479 -578.01736363185785 -999959.90969629388
 8263.7707679988944 588.38099412445263 -999965.68136136525
 7048.60548629189 2077.4260630413669 -999973.00036633527
 5158.9962937729224 3946.3110033492021 -999978.9054708631
 2461.2961083466798 6222.3644317497074 -999977.61185055808
 -1143.6650975924733 8848.1359416901123 -999960.20046824985
 -5604.8686697015764 11565.945308004411 -999917.40376709495
 -10423.491247443348 13698.412370918575 -999851.8411888486
 -14168.121694872771 13989.835683524514 -999801.75476200634
 0 0 0
 -0 -0 -0
 0 -0 -0
 0 0 -0
 30324.831136483164 16177.664862365753 -999409.16934764269
 24953.844955577671 13882.940238217256 -999592.20164638921
 19518.011441339491 11026.620525531147 -999748.698858449
 15101.434323638474 8324.7291695420972 -999851.31172871031
 11713.779223622472 5977.7562855939013 -999913.52316392353
 9187.2652126512712 3996.3311961983973 -999949.81048794778
 7353.5784003965937 2331.5570257886616 -999970.24392056023
 6074.1917644486321 925.55460102131997 -999981.1235933851
 5239.7112538836845 -269.71449877255367 -999986.23624531191
 4764.5113329207925 -1287.4796717344561 -999987.82083976071
 4581.7532416598106 -2147.5534369776069 -999987.19769378414
 4638.8911560716988 -2860.2993677456775 -999985.14957791683
 4893.4464221776516 -3430.9175382171497 -999982.1413340139
 5308.9967831793447 -3862.8247516347401 -999978.44633676682
 5851.5710040570284 -4159.6264745833832 -999974.22798008949
 6486.8037508516973 -4325.7313907221333 -999969.60425056587
 7177.9985284743416 -4365.994742038708 -999964.7065907066
 7884.872250949682 -4284.7943756263667 -999959.73385269125
 8562.5543259279621 -4084.7119816770328 -999954.99788312567
 9160.4503461260902 -3764.813192159816 -999950.95496283437
 9620.7773801361527 -3318.5206654974895 -999948.21269063454
 9876.6913626919013 -2731.3455890689552 -999947.49398105848
 9849.8163187181635 -1979.0498976658068 -999949.53096643335
 9446.7401515086349 -1027.0684443043849 -999954.85109624837
 8554.1762567640326 167.59920658186624 -999963.39831969561
 7033.1740906469104 1650.1335374753485 -999973.90542029601
 4715.5016193065585 3454.2561008907269 -999982.91593370109
 1414.8481047157895 5574.3520456770648 -999983.46226530743
 -3006.1136785489898 7908.902067637835 -999964.20563369978
 -8371.7545359313644 10152.111514723494 -999913.42043088062
 -13226.511303356088 11645.328215914571 -999844.71080737631
 -0 0 -0
 -0 -0 -0
 0 0 -0
 34668.788456469862 14764.266136553957 -999289.79357962473
 28985.548940882058 13334.224772521851 -999490.88860394899
 22495.867892522045 10858.424020878543 -999687.9665953496
 17067.775290182326 8384.2035551269037 -999819.18174107361
 12915.583756699918 6157.1507042700141 -999897.63335624943
 9825.8559030118122 4219.3039173088027 -999942.82338053046
 7566.7873678361011 2548.000981018628 -999968.12520196405
 5956.382406318573 1103.0613706281747 -999981.65221380047
 4860.5322594567087 -153.17882281268422 -999988.17581129563
 4180.4539581610115 -1248.4948666644909 -999990.48248734418
 3841.7723166486485 -2199.7617784989211 -999990.20086878096
 3786.7279384543262 -3015.0477972049434 -999988.28502053011
 3968.6680167969021 -3696.8996334939598 -999985.29119546188
 4347.9372842734547 -4245.5971461457011 -999981.53500264406
 4888.6478357363312 -4661.6487320817951 -999977.18481645221
 5556.1271422125201 -4947.221219338966 -999972.32684379164
 6315.0285094890505 -5106.5153148054414 -999967.02141433838
 7128.0692319805403 -5145.3157487208755 -999961.35743081092
 7955.2331214279084 -5069.9815825685964 -999955.50378641149
 8753.1582016787579 -4886.0797529918864 -999949.7529606896
 9474.4017450531082 -4596.7674408883859 -999944.55118304805
 10066.283846179902 -4201.0275272302069 -999940.50887902488
 10469.000901866262 -3691.9264073739419 -999938.38295142935
 10612.578822853178 -3055.1945090789109 -999939.0176191947
 10412.095221511347 -2268.5140921407387 -999943.21944644034
 9760.587711223101 -1302.0528300493359 -999951.51661766041
 8519.5800468333327 -120.98654961724814 -999963.70040020999
 6509.2699095891494 1308.7269381460067 -999977.95807659964
 3507.6695153980722 3008.7200093657934 -999989.32187222666
 -709.06319687316602 4964.8186190119914 -999987.42382365128
 -6178.943421046104 7072.6952454041329 -999955.8978475827
 -12130.692581832296 8945.5189644185211 -999886.40554212069
 -16248.6782447935 9284.4936795666636 -999824.87398164463
 -0 -0 0
 0 0 -0
 32820.84778234431 12225.850507328832 -999386.47205684194
 26616.858249843743 10573.348731645441 -999589.78944040171
 20164.233402317721 8391.6007578089884 -999761.46391427692
 14981.820382615828 6321.4048647910395 -999867.78370870522
 11089.439586167775 4481.3565407854057 -999928.46832821972
 8229.545158640778 2860.3463983842407 -999962.0457822202
 6162.4068590591805 1425.6978340786134 -999979.99586361169
 4710.6474539001101 147.13051335116364 -999988.89401491708
 3749.2728137575614 -996.98901275067226 -999992.4744548212
 3189.2735252819352 -2018.7041117179913 -999992.8766586741
 2964.6200533172432 -2921.9617961462131 -999991.3365460732
 3023.4058653401457 -3705.276943617484 -999988.56490449142
 3322.0686947349054 -4364.7050098934542 -999984.95649172855
 3821.6054604961896 -4896.4754242924291 -999980.70974400477
 4485.0367311141727 -5298.8756738243737 -999975.90289072157
 5275.6952269784952 -5573.2092904409374 -999970.55275546852
 6156.1171454869 -5723.868264841607 -999964.66915275436
 7087.3886467080338 -5757.6957759280667 -999958.30806165223
 8028.7785251912746 -5682.8712925589443 -999951.62067435333
 8937.4365912251487 -5507.5171493144253 -999944.89322263573
 9767.8852456269051 -5238.1802380947911 -999938.57305617619
 10470.99023702369 -4878.2984588785766 -999933.27805789222
 10992.022344480683 -4426.7689289041155 -999929.78711588983
 11267.320847897403 -3876.7371902532118 -999929.0066748081
 11218.941975118187 -3214.7474329967504 -999931.89805101266
 10746.681274471346 -2420.3836552744528 -999939.32345145126
 9717.2644697184642 -1466.5957998007054 -999951.71076806798
 7952.2902212088211 -321.15389034459014 -999968.32846866513
 5222.3269548285252 1049.0841579952137 -999985.81326117145
 1272.2477263047099 2664.4918380499325 -999995.64092498331
 -4046.8403858809811 4483.928762032624 -999981.75856649911
 -10342.387545848746 6245.1563659597123 -999927.0138574196
 -15560.766350754733 7225.1132093241886 -999852.81931376748
 0 0 0
 -0 -0 0
 30746.354624663898 10068.27058767979 -999476.50878080539
 24425.670267277623 8341.6397164775881 -999666.84634373814
 18168.970511166739 6444.7221676317322 -999814.15976507671
 13235.588369965764 4714.5862562143839 -999901.29106673994
 9553.3899258224028 3176.1124195441084 -999949.32124124351
 6858.7648711152306 1794.9691068533241 -999974.86739935027
 4922.6153849382536 538.23353663424666 -999987.73900605005
 3579.640761184 -615.01647096732756 -999993.40394162678
 2715.6148013234447 -1674.0600967865923 -999994.91146657499
 2250.1778553762069 -2639.0567192601561 -999993.98602154199
 2123.3914478374518 -3504.0961315956051 -999991.6062243022
 2286.7249032950581 -4260.3303615572477 -999988.31016888737
 2697.4599456234628 -4898.8312798384859 -999984.36245870055
 3315.3991426103084 -5412.8503173239415 -999979.85438706109
 4101.0257235838817 -5799.2572248321339 -999974.77478367172
 5014.5476684845989 -6059.094503940225 -999969.07036441518
 6015.4726724442962 -6197.3302849644015 -999962.70289739617
 7062.4854609833519 -6222.0004418283297 -999955.70302369678
 8113.4429518276047 -6142.9645608570127 -999948.2166741793
 9125.292976781624 -5970.4842190628124 -999940.53940535767
 10053.683052633187 -5713.7766594464665 -999933.13587127603
 10851.960955305372 -5379.6484876014583 -999926.64447227027
 11469.189028081837 -4971.265251809401 -999921.8690601954
 11846.684183549956 -4487.0854062982125 -999919.75784980482
 11912.508633256062 -3919.937215060721 -999921.36002302344
 11573.333269259869 -3256.1799647169146 -999927.72501270089
 10703.475039549987 -2474.8435880941174 -999939.65356480004
 9132.3350203035552 -1546.7794712361854 -999957.10304509779
 6635.9214768313177 -434.62103815248088 -999977.88758087356
 2950.905428713364 902.55949420577781 -999995.23876042035
 -2132.8717430158822 2486.5550210525967 -999994.6339367301
 -8421.3225834222158 4242.8970148093922 -999955.53858702537
 -14097.221694842294 5768.878813492267 -999883.98745940614
 -0 0 -0
 36963.901116759138 9975.9235119952991 -999266.80669594626
 30329.363877830525 8501.8886220170389 -999503.8006814305
 22846.326594358252 6590.7969513953767 -999717.26340835448
 16573.62167127107 4904.8768016835902 -999850.61746655824
 11791.93774233918 3442.8667027339948 -999924.5455898901
 8250.0728916669013 2137.9445237937616 -999963.68208575237
 5662.5885367547644 939.49616921337588 -999983.52608331048
 3809.5200552283177 -181.95855882189866 -999992.7271975691
 2538.1081723020902 -1238.5136491670905 -999996.0120374714
 1744.5197576594669 -2229.5965254979251 -999995.99276704516
 1355.723606276835 -3146.3396547247835 -999994.13126291917
 1316.0254723897401 -3975.4925454082177 -999991.23172954726
 1578.297086614363 -4702.8452348005403 -999987.69603680819
 2098.8337093859013 -5316.0235911604987 -999983.66726174008
 2834.6987993295884 -5806.4774298464572 -999979.12443339219
 3742.6233351387068 -6170.5567231722152 -999973.95816105988
 4778.7805515506116 -6409.694759702561 -999968.03902401181
 5898.984158371456 -6529.8422971610244 -999961.28082314937
 7059.0209257698689 -6540.3741305812837 -999953.69579286093
 8214.924229116019 -6452.7106435884889 -999945.43728408497
 9323.0229701237022 -6278.8639147975173 -999936.82655987726
 10339.575990661891 -6030.0581181778834 -999928.36321779783
 11219.740468593232 -5715.5035135437056 -999920.72207920766
 11915.530212460055 -5341.3446764098026 -999914.74145389197
 12372.322899592393 -4909.7452392785108 -999911.40608943626
 12523.386012291539 -4418.025052651401 -999911.81904076971
 12281.915780657326 -3857.7000077851189 -999917.13291422674
 11530.400398808342 -3213.2365638144342 -999928.35992256354
 10108.332753324808 -2460.3426635808542 -999945.88269712171
 7802.8337711026152 -1563.9345881624483 -999968.33444551844
 4356.6426356445409 -477.05030527618578 -999990.39599785733
 -464.34229195599494 853.91242877540174 -999999.52760978846
 -6623.3637588272613 2452.357227166453 -999975.05818722735
 -13111.973906014069 4101.992861194798 -999905.62044367706
 -17363.594254858443 4647.0270027056949 -999838.44231685181
 35806.646673330499 7512.8326856869871 -999330.49658211065
 28817.694843481659 6416.6159513923467 -999564.08874250774
 21335.29678686566 4958.2058131350495 -999760.08187271142
 15218.081843813698 3605.802322951522 -999877.69660824165
 10572.523008614906 2397.1071702057661 -999941.23609062494
 7125.5914341806174 1285.231039185262 -999973.78672037646
 4601.9451078580068 231.61458163003189 -999989.38417160686
 2796.7814984286229 -782.68041259142115 -999995.78270341805
 1570.5832848877617 -1760.122955386923 -999997.21761379263
 829.19908369795542 -2691.6544576765718 -999996.0337047145
 505.60746407289736 -3561.3796273951075 -999993.53044719319
 546.74749407453874 -4350.7117015650447 -999990.38614122081
 905.22594471236516 -5041.8604925641985 -999986.88001831423
 1534.8142116963372 -5620.5060782879518 -999983.02698433818
 2388.556195142437 -6077.518700374937 -999978.67905558331
 3418.4646024619569 -6409.6815600022965 -999973.61469293816
 4576.0235438371274 -6619.5069147948452 -999967.62054415117
 5812.9582046562664 -6714.3489247721909 -999960.56274006469
 7081.9431559849027 -6705.076208441772 -999952.44288624765
 8337.0600322352948 -6604.5662180214849 -999943.43496774381
 9533.8807273901239 -6426.2324786303052 -999933.90214273997
 10629.043802826392 -6182.7210989265877 -999924.39583583048
 11579.128894308591 -5884.8334454795076 -999915.64269660669
 12338.539398022624 -5540.6627811149001 -999908.52656704013
 12855.993234705966 -5154.8795804318615 -999904.07072601735
 13069.142493106858 -4728.0537042839233 -999903.41684717941
 12896.843838384182 -4255.875610352261 -999907.77521819342
 12228.889237896085 -3728.1306763301873 -999918.27431529004
 10914.009771890884 -3127.4005927272442 -999935.54980120179
 8749.9331471417136 -2427.9110616251905 -999958.77110898797
 5487.2683201732898 -1596.5305487362029 -999983.67035496607
 879.87464961223611 -603.24708627759696 -999999.43095661479
 -5135.1193269185851 533.83673061972684 -999986.672695113
 -11949.111395551039 1608.0268856872503 -999927.3138515579
 -17249.538437869367 2083.8983085644513 -999849.04400190315
 34608.252353056523 5115.7419562342448 -999387.86166998465
 27478.098399003044 4462.340262229498 -999612.44571471738
 20074.790207873062 3489.0945476834827 -999792.39295833162
 14088.790310665592 2479.8604194447971 -999897.67290452402
 9537.3276210265594 1505.9487218879874 -999953.38466365333
 6144.4132325574474 560.24272658727284 -999980.96597591031
 3650.9232283145552 -372.30132932746568 -999993.26605297741
 1868.3629522358524 -1295.8873464629821 -999997.41494459077
 669.82751103965779 -2202.6127798874231 -999997.34991051222
 -30.379347533200104 -3075.7206903782949 -999995.26949847606
 -294.74653487004252 -3893.7109250877829 -999992.37604079349
 -175.27549868413971 -4634.2759000811711 -999989.24632486992
 278.84678092874088 -5277.6261914518909 -999986.03435560828
 1017.5246527543035 -5808.9257375620891 -999982.61036147841
 1988.7305928326034 -6219.6769874905622 -999978.68005713029
 3139.0508127872581 -6508.0525427465718 -999973.89546532428
 4414.9038134987431 -6678.3255237697085 -999967.95378277812
 5763.821058979227 -6739.6592980528912 -999960.67690652038
 7135.436272103997 -6704.5597497115969 -999952.06606505357
 8482.0221758811149 -6587.265356241146 -999942.32995455014
 9758.5067434991506 -6402.282715301546 -999931.8888415203
 10921.906347853201 -6163.1834916278776 -999921.36047340091
 11930.04620355796 -5881.6964091906611 -999911.53590951802
 12739.328278761086 -5567.0582534263804 -999903.35401848168
 13301.187751604928 -5225.5419328295511 -999897.88084379165
 13556.774754333856 -4860.0547441458339 -999896.29148534406
 13429.384054153814 -4469.6969288720611 -999899.8317098018
 12814.346721231272 -4049.2300303544107 -999909.69404955243
 11566.891465438044 -3588.5989858089192 -999926.66180032725
 9490.7947340106693 -3073.2628366500362 -999950.23869733326
 6336.9681176551276 -2487.6568278403061 -999976.82693079603
 1837.8487451797725 -1827.688838126131 -999996.64092710882
 -4151.2212281114307 -1133.0211071581007 -999990.74176988564
 -11198.010558611117 -538.56269206548507 -999937.15528014861
 -16969.911050719791 -248.32092654477825 -999855.96985548269
 33697.341117757001 3207.0939625190545 -999426.93767474033
 26501.508346166742 2831.4883805298732 -999644.76326789637
 19120.717988957887 2211.6749855738949 -999814.73615732696
 13185.802802963706 1489.8312536937958 -999911.9536275568
 8667.976628711509 722.58863639705669 -999962.17130790837
 5287.0450603392746 -76.286760056509578 -999986.02056971798
 2795.2244224950432 -901.20989083659254 -999995.68726128025
 1016.8874099953022 -1741.348310581109 -999997.96682096168
 -164.75317069705577 -2578.3517335859697 -999996.66247379559
 -828.99397752006792 -3388.3489791043144 -999993.91591158241
 -1035.6492235005419 -4145.3078296538251 -999990.87188518047
 -837.37780000810812 -4824.5307702595692 -999988.01127876877
 -286.67816931275672 -5405.6287942988838 -999985.34838914801
 561.26524981818727 -5874.5719931641906 -999982.5870410027
 1648.5078296831643 -6224.6350238896403 -999979.26795546862
 2915.7621650252117 -6456.2726698971992 -999974.90712227835
 4304.2958575831517 -6576.1363222404316 -999969.11325712537
 5757.6340343773472 -6595.5465955120108 -999961.67347325501
 7222.7167458614222 -6528.7512688214456 -999952.60276159027
 8650.3961161067855 -6391.2503507406791 -999942.15961023921
 9995.2814069536635 -6198.3763131818041 -999930.83484842908
 11214.946182085649 -5964.2236953583888 -999919.32325455372
 12268.433965569791 -5700.9331585716363 -999908.48825737752
 13113.870739736851 -5418.2772932416174 -999899.3292653989
 13704.847598756389 -5123.4576741755609 -999892.95793787658
 13985.117460855858 -4821.0121608799782 -999890.58117943606
 13881.08984596431 -4512.7458257359358 -999893.46956053318
 13291.734395555421 -4197.6527141045217 -999902.85003516707
 12076.079989567295 -3871.9616310063598 -999919.58486931026
 10040.36770807082 -3529.8351534521512 -999943.36403622176
 6932.3836593238939 -3166.1215782132863 -999970.95844377019
 2466.7428341118625 -2783.755300364046 -999993.0829191861
 -3544.562808213997 -2407.6899662032451 -999990.81950962171
 -10718.835945656569 -2096.2884955514974 -999940.35428645124
 -16658.704781677548 -1916.256652681632 -999859.39787323982
 33118.39146799469 1607.2684193399666 -999450.14324617549
 25872.031239754408 1422.6599943311501 -999664.25065522362
 18458.033357183594 1072.4316100340677 -999829.06083741458