# OOMMF OVF 2.0
#
# Segment count: 1
#
# Begin: Segment
# Begin: Header
#
# Title: Oxs_TimeDriver::Magnetization
# Desc: Oxs vector field output
# Desc:  MIF source file: /mnt/gpfs/work/plgrid/groups/plggspinsym/MF/switching-obrazki/p-ap/Anisotropy.mif
# Desc:  Iteration: 36000, State id: 252150
# Desc:  Stage: 0, Stage iteration: 36000
# Desc:  Stage simulation time: 5.30052e-09 s
# Desc:  Total simulation time: 5.30052e-09 s
# meshunit: m
# meshtype: rectangular
# xbase: 1.0000000000000001e-09
# ybase: 1.0000000000000001e-09
# zbase: 3.4999999999999998e-10
# xnodes: 35
# ynodes: 35
# znodes: 5
# xstepsize: 2.0000000000000001e-09
# ystepsize: 2.0000000000000001e-09
# zstepsize: 6.9999999999999996e-10
# xmin: 0
# ymin: 0
# zmin: 0
# xmax: 7.0000000000000005e-08
# ymax: 7.0000000000000005e-08
# zmax: 3.4999999999999999e-09
# valuedim: 3
# valuelabels: Magnetization_x Magnetization_y Magnetization_z
# valueunits: A/m A/m A/m
#
# End: Header
#
# Begin: Data Text
 -0 0 -0
 0 0 -0
 -0 -0 0
 -0 0 0
 0 0 0
 -0 0 -0
 0 0 0
 0 -0 0
 -0 0 0
 0 0 0
 0 0 0
 -0 -0 0
 0 0 0
 13645.051129939699 26814.82372869923 -999547.28642924142
 11374.620021888924 25991.10701624817 -999597.45916815323
 9474.4649503334331 25077.487512030126 -999640.61248730239
 8037.3538027947598 24323.479537193154 -999671.83079601289
 6747.6848527584716 23798.387340446254 -999694.00593837816
 5296.5116803799801 23543.394447400475 -999708.78536797594
 3408.8460452730228 23598.096729370089 -999715.71439054154
 949.39237780883388 23957.28306486646 -999712.532302293
 -1452.6786144368598 24413.391756342913 -999700.89328148274
 0 0 0
 -0 0 -0
 -0 0 -0
 -0 0 0
 0 -0 0
 -0 0 0
 -0 -0 0
 0 0 0
 0 -0 0
 0 -0 -0
 0 -0 0
 -0 -0 0
 0 0 -0
 -0 -0 -0
 -0 -0 -0
 -0 -0 -0
 -0 0 -0
 0 0 -0
 0 0 -0
 -0 -0 0
 0 0 0
 0 0 -0
 0 0 0
 18990.472176652529 25884.860068049918 -999484.53514087212
 16944.101905999505 24009.077059818464 -999568.13756208471
 15194.586586911148 21619.770367538516 -999650.79406146007
 13119.308270690117 20880.862011043642 -999695.89043477329
 10896.607314181609 19695.814655193764 -999746.63732073095
 9193.6175868309474 18744.894242675404 -999782.02941216039
 7902.325347690331 18051.697867923875 -999805.8258772972
 6747.4550778724515 17617.038141383106 -999822.04007368104
 5476.9986321702672 17481.607869297277 -999832.1838550145
 3889.1601900532492 17729.892222991242 -999835.24910596025
 1929.9402358984648 18469.53298471454 -999827.56097339711
 44.99698973572373 19629.05355041847 -999807.3305552355
 -806.71237582494007 20026.990248101225 -999799.11426083231
 -2472.3974378481075 21139.413359338214 -999773.4805713403
 -4802.371823572983 21985.982427561317 -999746.7448316915
 -0 0 -0
 0 -0 0
 -0 0 -0
 0 -0 -0
 -0 0 0
 -0 0 0
 -0 0 -0
 -0 0 0
 -0 0 -0
 -0 0 0
 0 -0 -0
 -0 0 -0
 -0 0 0
 -0 0 0
 -0 -0 0
 0 0 -0
 0 -0 -0
 -0 -0 0
 23742.043438104167 24254.166405045024 -999423.85942370794
 21042.281857795042 22022.312666251288 -999536.01241728524
 18158.077459122636 20445.859132469766 -999626.05561646086
 15596.341693902752 18114.280212549114 -999714.27266902023
 13606.066952034156 15822.078586304238 -999782.24467696249
 11752.013020013414 14171.422136799656 -999830.51612990792
 10050.067653827755 12908.603425840958 -999866.1730940534
 8711.1749939146357 12024.398751774179 -999889.75855585397
 7663.3416873530086 11433.594056211939 -999905.26857354864
 6730.8948966488397 11105.167268799367 -999915.68160211516
 5745.9165517274578 11068.49957425203 -999922.23335625231
 4588.392568707869 11398.669088676652 -999924.50564862252
 3244.4892988320698 12179.800473177624 -999920.55971943238
 1881.8464520870041 13373.291047719576 -999908.80271176912
 614.06057974983048 14636.585450023913 -999892.6908903619
 -1245.5189021703138 16182.488997986113 -999868.27919106139
 -3745.258053806579 17914.250771041683 -999832.51230464736
 -6116.5255433167322 18863.454790922638 -999803.35976062249
 -8738.8056603980058 19842.855543101032 -999764.91954835353
 -0 0 -0
 -0 -0 -0
 0 0 -0
 -0 0 0
 -0 0 -0
 0 0 -0
 0 -0 -0
 -0 -0 -0
 -0 -0 0
 0 0 0
 0 0 0
 0 0 -0
 -0 0 0
 0 0 0
 -0 -0 -0
 25929.436948789174 20621.183426464206 -999451.06488192372
 22566.879105595584 19266.698694120951 -999559.66819838388
 19051.472552139723 16608.253099668585 -999680.55263797787
 16114.261314154059 14167.540462520905 -999769.77918896021
 13772.197799985721 11937.519426004272 -999833.89730380301
 11964.104488829522 10028.030257888762 -999878.14198177529
 10463.115010606252 8555.768046942967 -999908.65685691626
 9202.1584724354107 7473.4839196113489 -999929.7311899229
 8202.5801392411504 6724.7267573209429 -999943.74628230883
 7407.755978738408 6241.2848972071051 -999953.08465657081
 6712.1598367993411 5994.0942483887329 -999959.50805243454
 6011.502661068409 5998.5504992614151 -999963.9389636328
 5230.6365732771828 6299.410346459108 -999966.47837331286
 4342.263838236493 6939.3800777695378 -999966.49431313213
 3354.2148256263827 7905.0274224798068 -999963.12921244907
 2188.5654489511962 9120.4797199486529 -999956.01254802907
 555.60388330526473 10661.443805726884 -999943.01083626866
 -1660.8468250249612 12553.640001746573 -999919.82064090017
 -4400.5058447307974 14561.208820973532 -999884.29667936196
 -7691.5769500364495 16658.76315556189 -999831.64845595323
 -10263.69591244308 17739.758419732745 -999789.95669961907
 -0 -0 -0
 0 -0 0
 -0 0 -0
 -0 -0 -0
 0 -0 -0
 0 -0 -0
 0 0 -0
 0 -0 -0
 -0 0 -0
 0 0 -0
 -0 0 0
 -0 0 0
 -0 0 -0
 27438.301022128257 18473.641924422176 -999452.78237196757
 24045.681639283634 16505.335257853902 -999574.59906828788
 20049.559604389982 13780.68839136329 -999704.01008855144
 16673.868026371212 11145.721393096153 -999798.85728063656
 14069.407304843877 8916.4517890447969 -999861.26470905158
 12090.664108812169 7062.0318125922304 -999901.96696880518
 10587.312637649306 5554.0945557042305 -999928.52786825667
 9408.5147414958865 4383.7971518704207 -999946.12963543693
 8472.7109145017675 3517.0924881375754 -999957.92072976183
 7743.1980231252446 2910.242552755366 -999965.78610103379
 7169.6009812273605 2520.5283498111362 -999971.12146231916
 6684.6584807014569 2327.5498290769106 -999974.94861260871
 6221.3475309164178 2337.3902678663449 -999977.91547695443
 5725.0250591435633 2573.4808550210805 -999980.3004481442
 5154.820461877418 3059.8823064330363 -999982.03231171961
 4464.5887262208134 3805.3957155964754 -999982.79305743729
 3557.4060733723077 4816.480190416165 -999982.07302961394
 2267.3144040188922 6151.3829630224491 -999978.50965560041
 452.3719638896506 7871.3876538398408 -999968.91782495379
 -1995.4192590349294 9993.6736906448477 -999948.07104576472
 -5104.817918089655 12543.335978957055 -999908.29857369547
 -8344.4732414287992 15132.826609967628 -999850.6725132087
 -10483.643936571772 16723.28743639664 -999805.1934587711
 0 -0 -0
 -0 0 -0
 0 0 0
 0 0 -0
 0 -0 0
 -0 0 0
 -0 0 0
 0 -0 0
 -0 -0 -0
 -0 -0 -0
 0 0 0
 28817.244787372714 17436.178273822188 -999432.61208050873
 25351.714009762934 15021.195685570603 -999565.73284449033
 21150.201040984699 11926.166961914212 -999705.17430766672
 17429.284440465803 9141.5401895547093 -999806.30738501332
 14512.38131479424 6846.2990609264398 -999871.25120074465
 12324.870366174928 5005.2628848108943 -999911.51854247134
 10698.952856869486 3530.8229361521558 -999936.53083441232
 9486.3466992853118 2358.8597759682943 -999952.22136203013
 8570.2156571255146 1449.4507679368737 -999962.22453453788
 7874.9081185983987 768.67968040035248 -999968.69698689692
 7352.2760837692067 284.75492124379605 -999972.93110914889
 6958.2580610916502 -28.732674884566784 -999975.79061654722
 6645.8173855225659 -185.04026980372342 -999977.89919146558
 6368.2984082452158 -182.19328336136226 -999979.70558456378
 6082.2924096489969 -7.165515607770728 -999981.50266277348
 5744.4537808389096 357.41160682379046 -999983.43661667849
 5299.4785564368758 930.2022862020907 -999985.52502060577
 4662.9118117718326 1739.9723773644323 -999987.61479808425
 3717.1402866917765 2841.9508459862159 -999989.05303182104
 2333.9839410050367 4309.6436865754549 -999987.98967300518
 388.59278781300554 6224.4970138750268 -999980.55212717468
 -2193.456209963028 8661.943837684661 -999960.0789425585
 -5279.9560066669037 11539.282870350977 -999919.48026598897
 -8371.379079063081 14403.818386347737 -999861.21538351907
 -10418.916462821349 16164.697424530174 -999815.05726654967
 0 -0 0
 0 0 0
 0 -0 -0
 0 -0 0
 0 -0 -0
 -0 -0 0
 0 -0 -0
 0 -0 0
 0 0 -0
 30474.119150024693 16923.940814417947 -999392.26947647566
 26787.208305900607 14314.377964594472 -999538.66561262321
 22346.116688682552 10979.83466197857 -999689.99909958651
 18354.631729669112 7988.6759538227388 -999799.62420005584
 15149.498547230105 5583.1390260963681 -999869.65213090822
 12713.987980727939 3701.9819519115954 -999912.32107582979
 10910.332766713711 2232.5232613816975 -999937.98831667914
 9586.4383942076984 1076.893119346769 -999953.46916750248
 8616.6977456802415 167.74732077260947 -999962.8615007638
 7907.1284171111574 -538.32695057108026 -999968.59326895361
 7392.7265291948443 -1071.9264231916143 -999972.09889486805
 7028.0233243044895 -1456.5355374517787 -999974.2423644627
 6775.5331246838696 -1709.1556068871901 -999975.5851709519
 6599.715114078278 -1838.2181452879759 -999976.53208186023
 6465.5910786896457 -1842.8824620970718 -999977.39970273036
 6337.7444385180497 -1714.5839580316306 -999978.44636636204
 6176.7392632548108 -1439.0490447704267 -999979.88831272034
 5932.2435134549796 -995.85859341186892 -999981.90821262286
 5535.4028327993483 -353.42332098859077 -999984.6170854005
 4896.2646547077366 537.7637333808899 -999987.86862771399
 3909.0102387098445 1745.6799986093451 -999990.83607815905
 2459.6468651091227 3353.5439627752203 -999991.35190269956
 447.49542582338285 5445.1571362404802 -999985.0748944236
 -2164.2634827731708 8046.0237467706374 -999965.28813026473
 -5273.0444160578936 11021.26657845804 -999925.36055727315
 -8459.842639990351 13884.500393680819 -999867.81711950549
 -10718.327725090909 15549.960323752022 -999821.64218659885
 0 -0 0
 0 -0 0
 0 0 -0
 0 0 -0
 0 0 -0
 0 -0 0
 -0 0 -0
 32898.079075902016 16408.526937644216 -999324.00983707595
 28722.198866357507 13897.094152193795 -999490.82340279955
 23858.481054851556 10531.114536167739 -999659.87641216314
 19511.122450316299 7438.2098796223072 -999781.97079889139
 15997.26197442591 4928.5503933120526 -999859.8886845808
 13293.02678072743 2981.8502856605028 -999907.19769780687
 11271.215687482358 1486.3165313165239 -999935.37319173524
 9785.94604161395 330.48090735344471 -999952.06187218847
 8706.9202924683668 -571.64854074010009 -999961.93065384577
 7931.167999131043 -1278.8602904575878 -999967.73002458806
 7382.4202566820932 -1829.4678446223641 -999971.07604098192
 7006.2424045523785 -2248.9507195484939 -999972.92702754191
 6763.1214098706769 -2554.8118574794826 -999973.86622109683
 6621.5065973350029 -2758.4225558345502 -999974.2730467543
 6553.1161239552594 -2865.0608855690248 -999974.4237205208
 6530.340271641141 -2873.878345165811 -999974.54741567967
 6524.0872936646656 -2778.3520175160893 -999974.85820647085
 6500.7081705782612 -2566.5441160238902 -999975.57652403763
 6417.7680230449951 -2220.0199326077886 -999976.9416167062
 6219.7420205283943 -1710.9335617853119 -999979.19354131829
 5835.4411176645763 -998.57100658033391 -999982.47508789238
 5177.8666547116954 -27.865025428244415 -999986.59437036759
 4145.6860966020331 1269.1322106921209 -999990.6012509421
 2628.8714538577251 2964.6462649673626 -999992.14992288954
 522.50988140318157 5110.408263589663 -999986.80526835099
 -2244.1454062052926 7691.6402814488238 -999967.90072540648
 -5623.2182729241822 10534.295507298895 -999928.70147547009
 -9232.3284391777015 13119.791679687638 -999871.30930828932
 -12046.952596496172 14358.906531279781 -999824.33093837241
 0 0 0
 0 0 0
 -0 0 0
 0 -0 0
 -0 0 -0
 36555.418755885461 15039.52553839686 -999218.45160663524
 31622.03777699362 13252.385715914099 -999412.03764997073
 26018.37955255905 10199.430815099773 -999609.43149637559
 21095.26432013977 7187.6542377118267 -999751.63288179843
 17147.202223554774 4661.1057656167459 -999842.11131005397
 14107.733634382834 2672.281993321712 -999896.91006655758
 11821.940387447283 1144.4967234406397 -999929.46343865979
 10131.586584894347 -25.158666123294825 -999948.67384296993
 8899.133084390498 -927.43872492669323 -999959.97184275219
 8013.7371215158755 -1630.7548269642766 -999966.5597688962
 7390.6583566111485 -2182.3209652354076 -999970.30738130445
 6967.3505190737715 -2613.2234670899838 -999972.31316164718
 6698.3835381366816 -2943.6644480629488 -999973.23289055773
 6550.1235411457483 -3186.6635041518821 -999973.47017673776
 6495.9235157440662 -3349.9851478522141 -999973.28993187973
 6512.4750660122354 -3436.8454778540381 -999972.88751329458
 6577.2043496798051 -3446.1495002601391 -999972.4318382804
 6666.0099906134501 -3372.592388558739 -999972.09457633656
 6750.7260791601911 -3206.4204623945275 -999972.07289264956
 6796.1450986289692 -2932.478991571541 -999972.60611416888
 6756.9289527973824 -2528.4788953016841 -999973.97501415131
 6574.8542232307391 -1963.0823502006372 -999976.45852271421
 6176.4140507961547 -1194.8326713276156 -999980.21194639674
 5470.3366290367867 -172.91569444940163 -999985.02264650341
 4345.2626209846212 1158.3114044161177 -999989.8884526008
 2668.9512083764639 2847.7918352332358 -999992.38336154865
 294.53375436928781 4915.0231100900246 -999987.87782537378
 -2905.4837343795398 7302.7268395954889 -999969.11369550566
 -6926.7308975451579 9773.916363667051 -999928.242904454
 -11337.088235653368 11714.112825258611 -999867.11616647034
 -14788.023903002151 11993.385160703634 -999818.72009951447
 0 0 0
 -0 -0 -0
 0 -0 -0
 0 0 -0
 34521.915699580415 11999.753567320335 -999331.89844553382
 29001.028248252194 9707.0264683720143 -999532.24760269059
 23359.962971757519 6999.400663259511 -999702.61604154727
 18775.734861030505 4577.3241693153159 -999813.24250275723
 15260.670773111311 2608.418268479475 -999880.14685845771
 12623.538414260256 1072.2001960774505 -999919.74511189817
 10669.424900646489 -107.69978413939982 -999943.0742662535
 9237.4224552040578 -1013.1595303741934 -999956.82083485473
 8202.1479472964857 -1713.3109322979476 -999964.89405113633
 7468.3942657629268 -2260.1376894273108 -999969.55696896918
 6965.2287295782526 -2689.9452289645469 -999972.12450318318
 6640.5042147468175 -3026.8669692767303 -999973.37053549779
 6455.94133644877 -3286.4253380164014 -999973.75977070432
 6382.8172849278117 -3478.2231659423815 -999973.58045456139
 6398.3328077170227 -3607.5866129447054 -999973.02296417556
 6482.733799185512 -3676.3799599917311 -999972.22881081991
 6617.0201822140398 -3683.33840491405 -999971.32361988421
 6780.8986835290989 -3624.1030567025164 -999970.44220820768
 6950.645321121885 -3490.9445511997296 -999969.75046036288
 7096.7271575991927 -3272.0803178979349 -999969.46451081394
 7181.1658323086513 -2950.6343876335386 -999969.86185284576
 7154.6076301627991 -2503.5264734087282 -999971.27155976614
 6952.8110047730288 -1900.7738375559791 -999974.0224015573
 6492.0260650641576 -1105.7640337966629 -999978.31520662119
 5662.8598317967462 -77.375098175740746 -999983.9628872152
 4323.0487279502995 1224.68970732769 -999989.90564146044
 2292.6338675165525 2828.8935291487519 -999993.37057370064
 -635.17469609548493 4728.8962489056066 -999988.61698189983
 -4625.6617883305389 6835.289526656109 -999965.94045502704
 -9535.4238347987139 8880.3499320716437 -999915.1039350162
 -13963.916905833721 10276.386612018719 -999849.69115504902
 -0 0 -0
 -0 -0 -0
 0 0 -0
 38952.386774919294 10660.458615920452 -999184.2003287659
 33248.962048778121 9223.4685683658154 -999404.53978869179
 26675.992409584818 6827.7963019224871 -999620.81442246051
 21152.350656331284 4559.597750948702 -999765.86665581912
 16928.391519567889 2662.074136648248 -999853.16068003268
 13785.514682183102 1152.6663868247501 -999904.31089437159
 11469.071332169704 -19.173275310201856 -999934.22785459424
 9772.0090030596475 -920.62521005787301 -999951.82898441004
 8539.1531067587039 -1614.8772082514552 -999962.23680488113
 7656.6752459143245 -2153.5778615420518 -999968.36821300141
 7041.4427569251111 -2575.4739946900163 -999971.89211377525
 6632.7663811111452 -2907.8520716403937 -999973.77505935775
 6386.2347595077608 -3168.9779290891565 -999974.58646931697
 6269.0276949827494 -3370.5228321176273 -999974.66911297198
 6256.248174186534 -3519.4890040865448 -999974.2359460732
 6328.0154201497935 -3619.4979965624743 -999973.42737449519
 6467.1346434301486 -3671.5321530919723 -999972.34762824944
 6657.1562202766781 -3674.2787700950021 -999971.09055541141
 6880.5835002242602 -3624.192621274507 -999969.76094206981
 7117.0215235147089 -3515.3020231387559 -999968.49483187241
 7341.0964452338076 -3338.7671699179141 -999967.47993960627
 7520.0085364694651 -3082.2370836141631 -999966.97409773082
 7610.4899446021918 -2729.1530536868149 -999967.31554906943
 7554.7744736021104 -2258.2015474908208 -999968.91247099487
 7274.9913486053019 -1643.1631594522732 -999972.1868710696
 6665.420657002227 -853.4642908469973 -999977.42162819335
 5582.6373904327065 144.08127594983088 -999984.40657859901
 3835.9513892066839 1381.378340210696 -999991.68860087078
 1188.1448202398115 2880.5746577354489 -999995.14528897963
 -2600.0364111229414 4634.9535018109182 -999985.87840863888
 -7576.0296807415289 6557.9848271813325 -999949.79704447323
 -12989.86581558567 8290.6631657651578 -999881.25709524355
 -16688.514932236842 8651.9221825283039 -999823.3032450804
 -0 -0 0
 0 0 -0
 37187.405780218185 8235.9579532098141 -999274.3696542657
 31009.205115976154 6610.6658172371763 -999497.23776283057
 24532.100640041361 4571.1677709854084 -999688.59174414724
 19347.643987303116 2762.9133443754818 -999808.99925035296
 15477.197938573821 1300.6768321903073 -999879.37501668092
 12642.791230136329 155.97721232486185 -999920.06455567246
 10577.59278170865 -727.97108339818726 -999943.79071478127
 9078.1034685390314 -1407.9521223198144 -999957.80196378077
 7998.0734236872968 -1932.6713724456386 -999966.14722843259
 7233.7285570784516 -2340.6645206813901 -999971.0968126849
 6711.1622763378045 -2660.6283640595425 -999973.94033925154
 6377.2222924850721 -2912.833707817922 -999975.422915795
 6193.1755284770097 -3110.8915027319504 -999975.98317706177
 6130.2522321427487 -3263.440814865477 -999975.88469003513
 6166.418469432022 -3375.5176271294404 -999975.29027671914
 6283.9357312492757 -3449.5354130328137 -999974.30609849142
 6467.4301275567623 -3485.9006033150795 -999973.01005803596
 6702.23944273712 -3483.3404897854311 -999971.4727558404
 6972.8511748303072 -3438.9989278939606 -999969.77585968445
 7261.2479542366491 -3348.3393071048222 -999968.03094000532
 7545.0053094809909 -3204.8693549907998 -999966.40028917824
 7794.9451772091243 -2999.7276431957766 -999965.11962355522
 7972.0775685519011 -2721.1827862324126 -999964.51994232507
 8023.4052241703948 -2354.1156325248303 -999965.04094303073
 7876.0361736356899 -1879.5246256556879 -999967.21718332998
 7429.0335675480137 -1274.0878758297777 -999971.59267668054
 6542.9230678324329 -509.84300192665933 -999978.46487704024
 5028.6681043279286 445.61104770391165 -999987.25688275194
 2643.8763801272794 1626.5622388015572 -999995.18209487887
 -878.77969031049145 3056.9503893313517 -999994.94138749153
 -5699.0600097276365 4701.5536523356241 -999972.70768169442
 -11451.173546481636 6309.4709977732255 -999914.52694724686
 -16181.362311096917 7206.9758653749332 -999843.09919738548
 0 0 0
 -0 -0 0
 35167.89390288337 6315.9059257406589 -999361.46041898802
 28946.201699951831 4617.6825979134383 -999570.30488834076
 22759.336101722689 2890.8049692878885 -999736.79329453444
 17922.814252417098 1467.5810178908823 -999838.29639358644
 14356.815641143276 355.33227999249544 -999896.87247416505
 11768.829030729205 -500.02382141555597 -999930.6199129133
 9897.5613812168103 -1154.8024598806226 -999950.35112248641
 8548.7359071448373 -1656.5085170292716 -999962.08682825719
 7585.3816765121455 -2042.8645105832009 -999969.14386865613
 6912.0499420117458 -2342.7004659737627 -999973.36730541266
 6461.8079832634312 -2577.2247044924829 -999975.80118241371
 6187.0059648533006 -2761.3895261378279 -999977.04757913097
 6053.0133890435472 -2905.2293701420053 -999977.46008158533
 6033.9936379422506 -3015.0547559426445 -999977.24992401479
 6109.9777954632618 -3094.4315328056705 -999976.54605736991
 6264.7481943882085 -3144.9100553283129 -999975.43093358271
 6484.1838691545199 -3166.5228112221293 -999973.96390747954
 6754.8381004557305 -3158.0762552293299 -999972.19897185278
 7062.5516356339758 -3117.2748891140227 -999970.20103684068
 7390.9512144973714 -3040.6928634009951 -999968.06350355782
 7719.6649281332529 -2923.6136026560757 -999965.92904803506
 8022.0683622054894 -2759.7439594865691 -999964.01446875592
 8262.2781600179733 -2540.8180494111516 -999962.63880369347
 8391.0081429016846 -2256.0748974834546 -999962.2498416641
 8339.7739070500611 -1891.5673299970608 -999963.4344035862
 8012.9445949807241 -1429.1966617717694 -999966.87450926087
 7277.5115686390063 -845.3675514510702 -999973.16122937563
 5951.9260418826543 -109.33173356539727 -999982.281154503
 3799.7304126355684 817.78218976288849 -999992.44661201385
 545.98468870545946 1979.1472431526852 -999997.89243623393
 -4029.8978765579782 3400.7955280251895 -999986.09715979593
 -9752.0937038772936 5019.3892961290649 -999939.84939069441
 -14887.206541270632 6456.4569009450688 -999868.33395486814
 -0 0 -0
 41286.644535035739 6239.3084730429864 -999127.86169379554
 34846.701709652923 4835.6829330962828 -999380.97017630329
 27535.186905736628 3063.1993114880311 -999616.14147233765
 21433.129437935611 1624.538406601667 -999768.96422996768
 16848.655649122677 531.65968498857058 -999857.90997561091
 13516.146036867343 -290.8623187229245 -999908.61042168317
 11116.022953005284 -910.17719080512552 -999937.80087122892
 9391.0244168804493 -1377.8132435960026 -999954.95413096854
 8155.4194494267658 -1732.4343244626241 -999965.2432984435
 7280.1455480282748 -2002.9553857552223 -999971.49341894838
 6676.2696644688549 -2210.8121027339862 -999975.2695608096
 6282.0209013798567 -2371.5696544656171 -999977.45568126114
 6053.693930461307 -2496.16042078378 -999978.5607566546
 5959.5611072419988 -2591.8986329977379 -999978.88262347097
 5975.8409217695962 -2663.331945415568 -999978.59776508517
 6083.9975148568501 -2712.9324783898883 -999977.81223965494
 6268.8383834281058 -2741.6359247037744 -999976.59227492858
 6517.0639525470151 -2749.2299139535726 -999974.98449327145
 6816.0078833266689 -2734.6116327002883 -999973.03160422924
 7152.3936928933736 -2695.9209718457214 -999970.78721059405
 7510.9433676260269 -2630.56429872324 -999968.33242918178
 7872.6949817125151 -2535.1258130153092 -999965.79632047261
 8212.8331405698755 -2405.1702401498046 -999963.38159350655
 8497.7847942936642 -2234.9160939250232 -999961.39565667394
 8681.2166914779082 -2016.7481076733507 -999960.28381322499
 8698.4930667448407 -1740.4862001454817 -999960.65268897195
 8459.1349444452917 -1392.2963157792019 -999963.25159825769
 7837.149280582621 -953.09193311585318 -999968.83486782771
 6660.2659356873564 -396.37344418059956 -999977.74162516173
 4702.61015739514 314.16355612234253 -999988.89331780444
 1694.9488309364765 1225.6621370894939 -999997.81244800042
 -2606.468818517917 2390.0519026392708 -999993.74696655013
 -8177.3750154622194 3824.7989333103837 -999959.24989520258
 -14067.017668063398 5303.067353809186 -999886.99185986386
 -17937.938960902487 5747.7688854639864 -999822.58101058821
 40388.719230002396 3779.4447394952617 -999176.89482714771
 33608.486479465661 2820.586054819983 -999431.09513906308
 26312.731778985199 1610.609771334251 -999652.4626501411
 20428.172083615103 600.16730920103237 -999791.14298163448
 16062.051415582077 -164.26386867505357 -999870.98343821568
 12908.717637543537 -730.26120966300118 -999916.41237031401
 10648.013886850673 -1148.2264815464703 -999942.64904354024
 9030.2923849503877 -1457.382409606912 -999958.16405285394
 7877.6353165793189 -1686.6333181410089 -999967.54853838577
 7067.332487327044 -1857.1457517881304 -999973.3015541815
 6515.3397862930597 -1984.3878068209644 -999976.80600727
 6163.5775214359373 -2079.5256635003593 -999978.84271876083
 5971.0805495326422 -2150.3935385544696 -999979.86079955648
 5908.0936126550196 -2202.2232648727695 -999980.12212371279
 5952.2111767010892 -2238.222982115828 -999979.78056558222
 6085.8281299219325 -2260.0533052116061 -999978.92720548389
 6294.3940229431209 -2268.2093913453705 -999977.617664536
 6565.0951649588105 -2262.3220522902157 -999975.89042156737
 6885.7224444032954 -2241.3740766654269 -999973.7811906205
 7243.5270125589122 -2203.8396286892303 -999971.33679286484
 7623.9243525117436 -2147.7382385836831 -999968.63100695598
 8008.8885217882134 -2070.6048254294533 -999965.78456480324
 8374.8714851930945 -1969.3582700893658 -999962.99089296814
 8690.0008315209634 -1840.0541128296068 -999960.54826498521
 8910.241673552855 -1677.4763247825401 -999958.89598847937
 8974.1034842532554 -1474.5137466158621 -999958.64478280558
 8795.4740360834094 -1221.236296668603 -999960.57333196292
 8254.3850113168846 -903.6258939579609 -999965.52369985671
 7186.4790319266258 -502.06500991046101 -999974.05088824662
 5374.7630583446689 9.7440432112274067 -999985.55580924277
 2554.9121509519127 663.0584948557223 -999996.5163825989
 -1534.8256070948173 1481.7501837411637 -999997.72436078521
 -6981.0635116784597 2435.0514811717958 -999972.66726472578
 -13233.399014669125 3305.9923850249238 -999906.96945509315
 -18108.804673716695 3611.6665589780514 -999829.49899368139
 39518.222757053096 1533.2719008056258 -999217.67355636891
 32631.571134206657 1032.4299590191972 -999466.91523716412
 25439.143396454518 360.78029683619508 -999676.30752200587
 19733.306347702437 -235.28609158479131 -999805.25166706496
 15528.78252593415 -694.42806933153122 -999879.1800427282
 12502.830282977253 -1030.2369912839297 -999921.30582694185
 10339.372438774173 -1270.6940490786676 -999945.73988502286
 8795.9944740594583 -1440.6590893974167 -999960.27670232987
 7700.9950091370874 -1559.204012355586 -999969.13130292017
 6936.3384626311063 -1640.4669414155553 -999974.59771583485
 6421.3811276339902 -1694.8500341275562 -999977.94643070758
 6100.5088216445283 -1729.9211506285656 -999979.89538036718
 5934.524009965462 -1751.0359683575946 -999980.85746568791
 5894.9136112294718 -1761.7813947145873 -999981.07288079895
 5960.1061270421787 -1764.3268400206725 -999980.68195628456
 6113.0353233011547 -1759.7172432570226 -999979.76689249056
 6339.4866120270253 -1748.1310643049608 -999978.377239867
 6626.8780693307363 -1729.0988419501216 -999976.54707710468
 6963.2070147918139 -1701.6860423337419 -999974.30867631931
 7335.9882568550611 -1664.6264006468311 -999971.70574733824
 7731.0215313587678 -1616.4040622055604 -999968.80878554867
 8130.8569153785647 -1555.2670204269225 -999965.73456809844
 8512.7793881355374 -1479.1653212429956 -999962.67163181712
 8846.1006233436638 -1385.5885910267521 -999959.91252050607
 9088.4425922266419 -1271.2836820595799 -999957.89113794558
 9180.6263847858445 -1131.8134412275574 -999957.21663355047
 9039.7151404913311 -960.94312546482467 -999958.67921554053
 8549.9163619048722 -749.89576473033628 -999963.16761496116
 7551.7190009245114 -486.76370091609533 -999971.36689068796
 5831.8042412744117 -156.98199306649312 -999982.98256317584
 3122.2277380076821 252.65856940246113 -999995.09391676483
 -866.5710288411716 740.81899566509185 -999999.35012072267
 -6309.8563994867091 1260.5333895165693 -999979.298169613
 -12824.621945966275 1677.7189747009336 -999916.35366713791
 -18165.775493947986 1822.5430576805968 -999833.32757890527
 38971.988554325893 -184.80427431888006 -999240.28639537038
 32064.836573481767 -394.54646976276871 -999485.71304876532
 24938.791131083777 -676.09931047246118 -999688.75135546189
 19336.778759854282 -927.90542059408915 -999812.59642931225
 15228.377132844305 -1116.306751674136 -999883.41839893314
 12278.825969348676 -1243.782101447895 -999923.83881918644
 10173.844812015581 -1322.8496692242968 -999947.37009029335
 8675.4912908001606 -1365.9261674524071 -999961.43430462782
 7615.941792369028 -1383.0326619130969 -999970.04187689105
 6879.9765430427815 -1381.8876270704802 -999975.37785155152
 6388.9202299726758 -1368.3853901401017 -999978.65438204177
 6088.5252404834409 -1346.9760239417944 -999980.55756898946
 5940.5414437644758 -1320.9071604626822 -999981.48241436365
 5917.0866849006334 -1292.392075231887 -999981.65873574279
 5996.9853268303514 -1262.7460678072193 -999981.22064334666
 6163.3847028322007 -1232.5249828402034 -999980.24659048708
 6402.164686115616 -1201.6671332856592 -999978.78391665535
 6700.7671429367747 -1169.6437921807728 -999976.86555894662
 7047.2035562069577 -1135.6022802659768 -999974.52334021905
 7429.0387587226824 -1098.4971464050047 -999971.80094597698
 7832.2138121171383 -1057.1890185626623 -999968.76890139934
 8239.5530018901991 -1010.5050622278451 -999965.54372930666
 8628.8038282935559 -957.24109536380183 -999962.31300683424
 8969.9819778750043 -896.09994804098505 -999959.36738859524
 9221.7339826602547 -825.5468260171574 -999957.13812882546
 9326.309451875828 -743.58089650249462 -999956.23256193462
 9202.67663792034 -647.42532575904738 -999957.44488610374
 8737.3489322181576 -533.21126583525063 -999961.68647572817
 7772.9819017727268 -395.87313515497362 -999969.71155971324
 6096.4911336402329 -229.86076984615403 -999981.38980677223
 3433.7123150054058 -31.97369339391922 -999994.1042813306
 -526.38554310384427 191.56889431682859 -999999.84310979687
 -6004.2593992583861 413.21852746133624 -999981.88889575156
 -12662.156530873603 577.73620297206855 -999919.66477955971
 -18185.485592454173 635.22079403298733 -999834.42859721009
 38789.333457091299 -1624.0436255650336 -999246.09085663024
 31887.017146645554 -1623.6318105795874 -999490.16101071914
 24788.466678257824 -1595.2964855313082 -999691.44587160682