# OOMMF OVF 2.0
#
# Segment count: 1
#
# Begin: Segment
# Begin: Header
#
# Title: Oxs_TimeDriver::Magnetization
# Desc: Oxs vector field output
# Desc:  MIF source file: /mnt/gpfs/work/plgrid/groups/plggspinsym/MF/switching-obrazki/p-ap/Anisotropy.mif
# Desc:  Iteration: 41200, State id: 288550
# Desc:  Stage: 0, Stage iteration: 41200
# Desc:  Stage simulation time: 6.06569e-09 s
# Desc:  Total simulation time: 6.06569e-09 s
# meshunit: m
# meshtype: rectangular
# xbase: 1.0000000000000001e-09
# ybase: 1.0000000000000001e-09
# zbase: 3.4999999999999998e-10
# xnodes: 35
# ynodes: 35
# znodes: 5
# xstepsize: 2.0000000000000001e-09
# ystepsize: 2.0000000000000001e-09
# zstepsize: 6.9999999999999996e-10
# xmin: 0
# ymin: 0
# zmin: 0
# xmax: 7.0000000000000005e-08
# ymax: 7.0000000000000005e-08
# zmax: 3.4999999999999999e-09
# valuedim: 3
# valuelabels: Magnetization_x Magnetization_y Magnetization_z
# valueunits: A/m A/m A/m
#
# End: Header
#
# Begin: Data Text
 -0 0 -0
 0 0 -0
 -0 -0 0
 -0 0 0
 0 0 0
 -0 0 -0
 0 0 0
 0 -0 0
 -0 0 0
 0 0 0
 0 0 0
 -0 -0 0
 0 0 0
 22446.299685759226 30993.357631659212 -999267.51944268297
 20011.463815220694 30251.883489453307 -999341.96592623531
 17698.100035124069 29499.544981331012 -999408.10187882755
 15863.832526375514 28987.356520066831 -999453.88687000156
 14259.933637601245 28758.979992350593 -999484.65489093459
 12576.568613910724 28825.735778353457 -999505.33109070314
 10504.150907935369 29203.202522211621 -999518.30187153129
 7809.731381352527 29868.42278925209 -999523.32910034363
 4937.6594032247413 30573.093953507021 -999520.33768489584
 0 0 0
 -0 0 -0
 -0 0 -0
 -0 0 0
 0 -0 0
 -0 0 0
 -0 -0 0
 0 0 0
 0 -0 0
 0 -0 -0
 0 -0 0
 -0 -0 0
 0 0 -0
 -0 -0 -0
 -0 -0 -0
 -0 -0 -0
 -0 0 -0
 0 0 -0
 0 0 -0
 -0 -0 0
 0 0 0
 0 0 -0
 0 0 0
 27444.161642945583 29008.854513065682 -999202.33404028649
 25260.845901156252 27382.861725901086 -999305.79331256647
 23477.784158512404 25303.545983406628 -999404.08454822307
 21715.42008088237 24733.433586361829 -999458.202124401
 19464.309453511894 23487.877458476818 -999534.62184658379
 17476.39360246879 22553.192475899832 -999592.88171524939
 15860.903860364195 21992.007768014111 -999632.32406873675
 14423.33993084029 21764.602656400555 -999659.07655382622
 12924.034598159627 21865.573592753899 -999677.38096906315
 11132.714195589981 22337.286329902046 -999688.50564266031
 8901.821298445735 23251.161768904702 -999690.02248395327
 6482.2515753040016 24531.446027522932 -999678.04245682678
 4847.9985525118072 24999.944022711665 -999675.69726831745
 2688.0684035876884 26747.297555221405 -999638.61288054974
 -86.314079854849908 28151.692325132157 -999603.6588413982
 -0 0 -0
 0 -0 0
 -0 0 -0
 0 -0 -0
 -0 0 0
 -0 0 0
 -0 0 -0
 -0 0 0
 -0 0 -0
 -0 0 0
 0 -0 -0
 -0 0 -0
 -0 0 0
 -0 0 0
 -0 -0 0
 0 0 -0
 0 -0 -0
 -0 -0 0
 32225.383860233353 26706.395763538778 -999123.76263423043
 29513.690771480313 24765.637515696129 -999257.52699466131
 26668.615325396011 23394.041543262978 -999370.55378718174
 24011.801354712956 21151.77333563918 -999487.88681027014
 21955.262992446769 19001.173812558016 -999578.37202526419
 20187.271836683114 17421.2966548722 -999644.42302183365
 18468.078539215141 16113.496715975692 -999699.59752850444
 16961.725514139274 15211.622765908694 -999740.41950918967
 15683.057656089919 14683.340801771754 -999769.1939670149
 14515.82290460424 14479.382931588443 -999789.79708502861
 13309.062186065659 14590.857683723278 -999804.96884931531
 11923.222759562284 15054.488792166205 -999815.58255821967
 10281.65216633721 15932.424926232747 -999820.20656951133
 8462.6403819367497 17220.551088270295 -999815.90122281131
 6621.9737316316196 18684.485520924885 -999803.50042631663
 4279.7912219391892 20640.175701372686 -999777.80858254363
 1237.8826603542425 22756.208895602384 -999740.27757374034
 -1862.5552169626242 23949.877943366249 -999711.42547965376
 -5158.0789747126955 25586.717445015285 -999659.29901725985
 -0 0 -0
 -0 -0 -0
 0 0 -0
 -0 0 0
 -0 0 -0
 0 0 -0
 0 -0 -0
 -0 -0 -0
 -0 -0 0
 0 0 0
 0 0 0
 0 0 -0
 -0 0 0
 0 0 0
 -0 -0 -0
 34339.83374646429 23062.595323167465 -999144.07995805331
 31162.434544628577 21774.275229060495 -999277.13053561922
 27596.651708383855 19163.932433870701 -999435.42488154618
 24589.866789800504 16761.34330713248 -999557.09983061987
 22168.103770520109 14544.423027367842 -999648.45567530405
 20305.703509488725 12679.531631869309 -999713.41287520039
 18806.575986524706 11239.541563156678 -999759.9638938905
 17515.612764196117 10149.452520448927 -999795.07496437966
 16408.597052108344 9399.8522717537708 -999821.18437251099
 15448.322806737393 8954.9588446184061 -999840.56630772399
 14557.314902875787 8782.2792052270306 -999855.4676325873
 13642.640633043313 8875.1969503050677 -999867.54584577389
 12618.610090265094 9254.8896785193301 -999877.55135137821
 11427.293436663134 9955.8717402858401 -999885.14219514397
 10048.166668243455 10991.291571750931 -999889.10677944287
 8432.5618345754956 12337.275755890836 -999888.33552943741
 6355.8969249076918 14085.805352517169 -999880.58920145605
 3649.6611613542332 16204.652995513256 -999862.03508019156
 317.29724428172767 18488.187242961085 -999829.02851183922
 -3686.4385561381368 20984.20213730726 -999773.01095370261
 -7169.0549394242371 22210.79157013119 -999727.60559519613
 -0 -0 -0
 0 -0 0
 -0 0 -0
 -0 -0 -0
 0 -0 -0
 0 -0 -0
 0 0 -0
 0 -0 -0
 -0 0 -0
 0 0 -0
 -0 0 0
 -0 0 0
 -0 0 -0
 35442.566777879103 20888.972703272066 -999153.37925645697
 32419.923184030515 18977.984302151825 -999294.14322939422
 28551.113827271052 16167.153788751481 -999461.5835726721
 25133.762832082408 13433.540537545538 -999593.83449205337
 22462.091640088463 11147.951291903766 -999685.53936782829
 20429.784777902591 9270.4211704309892 -999748.30991867697
 18894.289706381816 7771.6053386458043 -999791.2822019161
 17701.485898423925 6620.0150168551572 -999821.4004501825
 16732.866223894958 5764.8838270772376 -999843.37638571858
 15923.168109772218 5173.2054488831127 -999859.83550832351
 15219.621265828071 4815.0733356426863 -999872.58098084526
 14563.436875203372 4669.6098778825208 -999883.04368559527
 13892.374646660115 4732.0202003905124 -999892.29915601411
 13147.374506882274 5013.6495611235778 -999901.00003033003
 12276.534702641124 5535.427036876823 -999909.31876006338
 11228.759609651539 6318.3872140091353 -999916.99302524247
 9924.2656763605919 7387.4138773655814 -999923.46460466157
 8221.1981036534689 8802.9044150677055 -999927.45775661152
 5965.8830193651274 10612.126754540293 -999925.8927568309
 3019.4986101824284 12844.493232667606 -999912.947021759
 -716.98233358909272 15549.343083300353 -999878.84459368919
 -4862.7980749316002 18332.433476138453 -999820.12136070023
 -8087.50706268665 20116.598121521354 -999764.92972574732
 0 -0 -0
 -0 0 -0
 0 0 0
 0 0 -0
 0 -0 0
 -0 0 0
 -0 0 0
 0 -0 0
 -0 -0 -0
 -0 -0 -0
 0 0 0
 36336.568928873276 19643.509443305182 -999146.52894118999
 33306.286040634048 17361.971508203358 -999294.37767633202
 29364.75548482942 14201.962943629716 -999467.86610869295
 25735.410829668755 11264.073186181813 -999605.32675885863
 22821.253608507948 8832.0289139706583 -999700.54798874608
 20615.692839121086 6907.3416939267518 -999763.61298033164
 18977.029072603771 5396.5200074554723 -999805.35602655518
 17759.11912869049 4222.2105715904709 -999833.37943162397
 16836.157866439989 3327.2246305312128 -999852.72583743755
 16112.678798636371 2665.0591879553463 -999866.63062703342
 15522.887398614754 2202.5641241373378 -999877.08678521554
 15015.572103598617 1915.7323158713316 -999885.42471830011
 14543.680941527096 1790.0358157082901 -999892.63279436622
 14061.464261262541 1821.8679445175326 -999899.47295716777
 13524.212284742798 2018.1321409859258 -999906.50704190275
 12886.530367521162 2394.1145382110371 -999914.09908584878
 12095.750404320997 2972.0792160435494 -999922.42677484243
 11078.794048782591 3785.2919253904079 -999931.4635951129
 9730.9846181239482 4886.9853683831207 -999940.71089858655
 7924.0134167023325 6344.0042851057769 -999948.48048337107
 5514.525657346765 8239.6158085339539 -999950.84816109925
 2373.5726869947293 10666.868471909012 -999940.29025222419
 -1472.299426153083 13594.489792396671 -999906.50672034535
 -5605.1565348111499 16668.625574878864 -999845.3576136987
 -8810.1785049673526 18723.744579625538 -999785.87814773014
 0 -0 0
 0 0 0
 0 -0 -0
 0 -0 0
 0 -0 -0
 -0 -0 0
 0 -0 -0
 0 -0 0
 0 0 -0
 37547.770235299067 18725.475106538215 -999119.37301425182
 34297.227249334705 16346.934756541872 -999277.978305873
 30169.889371257148 13029.565832899512 -999459.85821819399
 26362.531421341679 9925.6687086962847 -999603.1702819597
 23257.101599651247 7373.7720943166369 -999702.32304935867
 20875.243208553358 5371.4053083451745 -999767.65912185668
 19106.894016693757 3826.1287020052227 -999810.12564395962
 17811.528750363872 2636.3407546620142 -999837.88643509615
 16862.793580144211 1722.8798157445804 -999856.32861817395
 16158.79938667424 1029.0387388365411 -999868.90854834323
 15622.286424664231 513.96455185595312 -999877.83254120871
 15196.324928062309 149.25783004449951 -999884.51804734964
 14836.521255103944 -84.036644565725908 -999889.9292296574
 14504.64722731751 -196.58380226306832 -999894.78274647461
 14165.060597903257 -191.023453291539 -999899.65224931343
 13782.363249787248 -62.348372453046103 -999905.01677705941
 13318.457688738044 201.71335785570622 -999911.28506308747
 12727.649812000207 621.32869882221303 -999918.80714431556
 11949.743498401253 1227.431667540159 -999927.84591780615
 10903.934402785961 2066.0410072827081 -999938.41594825033
 9487.3924564702247 3200.1189627004278 -999949.87305514526
 7576.4105019726176 4712.5903759948287 -999960.19395566615
 5038.0691740877464 6701.1064413377635 -999964.8558981755
 1774.0794376880986 9235.8122073082577 -999955.77522959514
 -2189.8471379470893 12272.092667661062 -999922.29713666672
 -6481.813706535504 15414.56575517386 -999860.17885184987
 -9920.1592006319224 17471.47327772326 -999798.14865948819
 0 -0 0
 0 -0 0
 0 0 -0
 0 0 -0
 0 0 -0
 0 -0 0
 -0 0 -0
 39653.200560075958 17607.989004939918 -999058.34784988617
 35872.220916265651 15443.970698416702 -999237.04271589196
 31315.819818114203 12206.05389975342 -999435.00622967782
 27182.785553901555 9085.1886339999146 -999589.19337746711
 23826.283435459212 6477.0636620922796 -999695.13145957189
 21242.815119928306 4420.3241747740176 -999764.57405729801
 19316.696352208215 2835.7412541111817 -999809.39374141546
 17909.071480516381 1623.4620870067456 -999838.30169160746
 16891.417492020391 695.44878656493017 -999857.08797112387
 16157.627795893071 -15.275284459186391 -999869.45689458644
 15624.900481170869 -556.61678968150352 -999877.76886112569
 15230.512904411062 -962.16232575177514 -999883.54607940605
 14927.163130947871 -1254.7968741648392 -999887.79634800379
 14677.773758149297 -1449.2401972577907 -999891.22541422246
 14451.104211092032 -1553.4332062877736 -999894.37063739577
 14218.556851043923 -1569.1874354647421 -999897.67991123279
 13951.5930469257 -1492.4612822430172 -999901.55795996939
 13618.931789682472 -1313.2259107154732 -999906.39568642376
 13182.950861007537 -1014.5621218184946 -999912.58641458105
 12595.248040242026 -570.68105875989306 -999920.51386594411
 11792.133843064688 55.818245156512404 -999930.46881458245
 10690.962649672483 916.54356187865596 -999942.42997560732
 9187.3021882382982 2079.7150326952619 -999955.63314773364
 7155.4753088967618 3628.4600338258006 -999967.81620754488
 4458.5570772348919 5646.4487462977431 -999974.11910776189
 977.30966222173538 8181.9559442952022 -999966.04965506191
 -3302.6577240363681 11152.138938208105 -999932.3588368668
 -8044.5308415789514 14115.627593565327 -999868.00857972156
 -12060.861749963467 15859.070923927964 -999801.49303913233
 0 0 0
 0 0 0
 -0 0 0
 0 -0 0
 -0 0 -0
 43091.702342187375 15539.630721582696 -998950.26155774586
 38569.162559170611 14192.0262970199 -999155.14615552523
 33231.455831371699 11384.426283304423 -999382.84214885719
 28492.14523510151 8444.0693315246026 -999558.35014921788
 24701.867887757773 5890.9016048323538 -999677.50549921754
 21810.73985764994 3834.5005118156791 -999754.76404600695
 19663.491080495249 2233.5873986330621 -999804.15992626268
 18097.543290753601 1004.4809787467689 -999835.72147868492
 16971.089320337374 63.624202885463177 -999855.97866854875
 16168.934476587494 -658.32187560034367 -999869.05751213222
 15601.264798899321 -1213.8070305760807 -999877.55610833014
 15199.707294386882 -1640.5588794662667 -999883.13190328795
 14912.732338955871 -1964.9352456838653 -999886.86832244543
 14701.205089621988 -2204.7357535481447 -999889.50074954261
 14534.368628121829 -2371.1901495588177 -999891.55891319364
 14386.508615646719 -2470.1689683441432 -999893.45764192287
 14234.294916265548 -2502.8119339767277 -999895.55493594415
 14054.46633909111 -2465.7351252685585 -999898.19088055915
 13821.447009214227 -2350.8180352521927 -999901.71579867625
 13504.551493675275 -2144.4665314916633 -999906.50980591658
 13064.64236436274 -1826.2722067558163 -999912.98613915301
 12450.288412476248 -1367.1842731730464 -999921.55748619081
 11593.477962256955 -727.48509250544544 -999932.52874090406
 10404.755141681519 145.0254928130436 -999945.8585533757
 8768.2976896723285 1314.9588669724635 -999960.69314688735
 6538.6966283931843 2854.0279400043569 -999974.54966160003
 3544.263221544626 4824.8765992983353 -999982.07922143186
 -385.48869098956919 7237.7178845507615 -999973.73307417077
 -5317.1616030070072 9942.8971572854389 -999936.43127381231
 -10903.943962434356 12385.024864779705 -999863.84831394069
 -15694.598768802254 13249.528644692806 -999789.04252856248
 0 0 0
 -0 -0 -0
 0 -0 -0
 0 0 -0
 41364.798858890033 12559.28457973494 -999065.17194135487
 36125.162844262697 10445.603729233251 -999292.68083590374
 30609.944582266166 7843.5605323427626 -999500.63024034491
 26130.503114985775 5446.3805522272278 -999643.70339928532
 22741.025864828502 3452.984329038276 -999735.42632130347
 20248.282415046626 1870.775531748463 -999793.23225262458
 18443.767187950049 642.27912102115397 -999829.69296248001
 17152.982397104181 -303.62172450462947 -999852.83067496144
 16239.871702026305 -1031.8352292287807 -999867.59217566485
 15601.143864700573 -1594.8652567469956 -999877.02279576636
 15159.386043846021 -2032.3868189176214 -999883.02436764655
 14856.896245769825 -2373.106902106817 -999886.81409326219
 14650.546057897727 -2637.1287767116123 -999889.19738740101
 14507.607712598576 -2837.9797871612209 -999890.73162480374
 14402.37523767616 -2984.0876397268989 -999891.8275535967
 14313.457388417262 -3079.7242568422434 -999892.81437366642
 14221.556320410138 -3125.5193798164833 -999893.98361247859
 14107.491575472917 -3118.6231022146449 -999895.6209882081
 13950.183755238266 -3052.5402030563637 -999898.03198701411
 13724.357114459242 -2916.608156020613 -999901.56286439486
 13397.743886172022 -2695.1034018076607 -999906.61407774175
 12927.606093750357 -2366.0099981353637 -999913.63576929667
 12256.301894789254 -1899.5695453899482 -999923.08439169754
 11305.527778537227 -1256.8678971350939 -999935.30056936073
 9968.9602113834553 -389.21372831832002 -999950.23293410824
 8103.5804683072693 760.16917470321926 -999966.87651462702
 5522.0685722124463 2249.1134324422824 -999982.22396573215
 1996.7777149737556 4116.8431227009569 -999989.5321859424
 -2686.4028860015851 6335.5515936879829 -999976.32173243875
 -8477.8146536978584 8696.5957035995398 -999926.24522104906
 -14019.354387059218 10559.31993316724 -999845.96736953396
 -0 0 -0
 -0 -0 -0
 0 0 -0
 45278.466144380094 10749.852285109084 -998916.5636725924
 40151.179061233357 9626.6571189691476 -999147.24154786451
 33834.407199904097 7345.0125688166336 -999400.4621170609
 28394.136768842087 5101.5055841897802 -999583.78720241692
 24247.296076715305 3191.4142363045503 -999700.89702277479
 21218.611516570098 1650.4426850674456 -999773.49763046438
 19046.626431043765 439.38804207504256 -999818.50000874896
 17505.531653011196 -500.90190892311665 -999846.64096991555
 16422.268958743658 -1228.731281424888 -999864.39045586833
 15669.099397996766 -1793.8667246585878 -999875.6229482895
 15152.77190247842 -2235.6724418492013 -999882.69075547275
 14805.283739371987 -2583.7749492397602 -999887.05746219563
 14576.821902806074 -2859.666953011812 -999889.6631969607
 14430.516448216969 -3078.4284865005975 -999891.13581083994
 14338.521545827396 -3250.1802595398094 -999891.91572297481
 14279.049038343908 -3381.1544318776014 -999892.33248048706
 14234.054655919212 -3474.3998231471192 -999892.65435541689
 14187.347066508313 -3530.1758566910794 -999893.12280945072
 14122.880643393144 -3546.0869551003725 -999893.97913460771
 14023.020537485567 -3516.9754061832773 -999895.4874280598
 13866.550807604355 -3434.573263177791 -999897.95603111433
 13626.205910413159 -3286.9006483546109 -999901.75657242187
 13265.438779853128 -3057.416323331312 -999907.33587638196
 12734.058366006291 -2723.9468493112277 -999915.20834073389
 11962.219239195245 -2257.5004560159969 -999925.90175600722
 10852.205038880438 -1621.252407010141 -999939.7987811201
 9267.685430676569 -770.33045678117332 -999956.75736390974
 7021.583612669202 346.29693358432445 -999975.28841567063
 3869.2585298551357 1778.8351545172936 -999990.93225084885
 -467.0330884529393 3557.3754686727966 -999993.56345921999
 -6150.620288191566 5636.8320695529337 -999965.19739153434
 -12676.277268628908 7694.0994607475241 -999890.05036958773
 -17882.961757088975 8436.0127983031998 -999804.49757283123
 -0 -0 0
 0 0 -0
 43818.23512914103 8346.0931092078299 -999004.65714629157
 38037.533299956594 6858.5128538944309 -999252.7742577889
 31693.090770974151 4857.3690014080739 -999485.84480410069
 26558.733854602637 3026.5396044016275 -999642.67301574477
 22759.254739366352 1523.6123185662645 -999739.81361612852
 20040.020944542288 334.34605952710353 -999799.12271078455
 18122.603923314095 -593.60755144549341 -999835.59591420495
 16782.968139735425 -1314.8419026183744 -999858.29154495278
 15855.620783104367 -1876.7949953990508 -999872.5303408067
 15221.686215066962 -2317.7508604901836 -999881.45712365257
 14796.312785857124 -2667.2513110555242 -999886.97106142307
 14518.728082051108 -2947.3335393181169 -999890.25385783589
 14345.015882191028 -3173.9548846547791 -999892.06744014623
 14242.976154198419 -3358.3025752003527 -999892.92398440582
 14188.457876239325 -3507.8515759393172 -999893.18561555119
 14162.674418614733 -3627.1415068941501 -999893.12553782528
 14150.165514058222 -3718.2931623108448 -999892.9678279988
 14137.130506119925 -3781.3061071961297 -999892.91589908593
 14109.92705464933 -3814.1676988654976 -999893.17533588421
 14053.525006556853 -3812.793150411856 -999893.97490098036
 13949.726268937655 -3770.7936115033658 -999895.58767531405
 13774.909675658431 -3679.0641629814299 -999898.35300910054
 13497.017027518015 -3525.1696837608429 -999902.69712110481
 13071.366745728172 -3292.5144018604465 -999909.14523286186
 12434.761926530782 -2959.2893534689324 -999918.30631424731
 11497.2340993585 -2497.2550100230596 -999930.78626746929
 10130.916961715693 -1870.5331476309636 -999946.93140549131
 8156.5895290131893 -1034.9456877039613 -999966.19889608223
 5332.5755723073225 60.358797885970382 -999985.77989618469
 1364.5163799988927 1462.7898341582054 -999997.99916847318
 -4000.91341868872 3174.7158447991692 -999986.95685049845
 -10596.387339251816 5007.6702335438295 -999931.31754845462
 -16572.741334960061 6276.2086220076244 -999842.96439489792
 0 0 0
 -0 -0 0
 41894.068384684026 6457.8327036758292 -999101.18778377527
 35977.428737870752 4741.2776711811257 -999341.35554747074
 29874.943987621173 2957.5282561520157 -999549.26879486558
 25082.815468240631 1466.7840423782584 -999684.30062333145
 21595.519331968255 288.90058894613185 -999766.74783733033
 19130.65256514628 -627.09736258308567 -999816.79565874964
 17412.406467939069 -1337.8861518612468 -999847.49745230644
 16225.903740722271 -1891.7227664088018 -999866.56181351095
 15415.117498843047 -2326.8619480248694 -999878.47254852497
 14869.491857381929 -2672.7046269863004 -999885.8709182163
 14511.095765681835 -2951.3630125852542 -999890.35276676575
 14284.752436148616 -3179.1292064676445 -999892.9137589318
 14150.983514479347 -3367.7344108126272 -999894.19841826835
 14081.091347715863 -3525.3688855089135 -999894.64177016076
 14053.713059737562 -3657.4642821479842 -999894.55249254149
 14052.357936908389 -3767.2568244878021 -999894.16390557634
 14063.552547914178 -3856.1642363943361 -999893.66759026621
 14075.34068212097 -3924.005670746561 -999893.2377830036
 14075.916214260151 -3969.0910091122969 -999893.05173067923
 14052.218104515503 -3988.1883135958292 -999893.30906868167
 13988.288577897654 -3976.370957699261 -999894.25253707112
 13863.18767127146 -3926.7259613400438 -999896.19103725755
 13648.165766381202 -3829.8991697551273 -999899.52467413584
 13302.712364589723 -3673.4315754288923 -999904.76733747276
 12768.941196790736 -3440.8374544418671 -999912.55356572301
 11963.677214102607 -3110.360539176927 -999923.59512356401
 10767.669154540266 -2653.3706647174804 -999938.50657182606
 9012.1709662127396 -2032.4815920750796 -999957.3239859055
 6466.230773392479 -1200.0506704415509 -999978.3736351371
 2838.3715139233814 -99.878467742518268 -999995.96682758699
 -2159.0343110596755 1317.5744236415496 -999996.80127912504
 -8504.7476079742373 3030.6069304289886 -999959.24151425168
 -14626.308169075328 4686.3526982625081 -999882.04764748667
 -0 0 -0
 47081.462684752907 5820.8541929202656 -998874.09293060005
 41392.739105568071 4701.2634232371147 -999131.89283075323
 34444.029244869824 2948.5560819380175 -999402.2787978875
 28457.203653493347 1438.7434050650752 -999593.9763612214
 23940.22218196707 260.85294094930248 -999713.35777692834
 20703.19927591665 -643.40647459643242 -999785.45876995532
 18436.83400648291 -1338.940665490434 -999829.1305966794
 16870.188370764437 -1878.2340196559414 -999855.92411172052
 15798.038361525192 -2301.1352611893535 -999872.55525913788
 15073.12367866493 -2637.3882312500573 -999882.91570857703
 14591.931624225223 -2909.041827237385 -999889.30037635739
 14282.034687895512 -3132.321731593956 -999893.10030909989
 14092.527440679989 -3319.0329382562618 -999895.18685244629
 13987.258632350158 -3477.6092556352846 -999896.12602000649
 13940.142182655387 -3613.8963092384092 -999896.30071792612
 13931.914178417719 -3731.7237837110938 -999895.98259265325
 13947.826495651374 -3833.310244557561 -999895.37646126584
 13975.932406443217 -3919.5321310913323 -999894.64974128327
 14005.689964141864 -3990.0851066544233 -999893.95431189099
 14026.697274496588 -4043.5527909687034 -999893.44504521915
 14027.373900846002 -4077.3932087362423 -999893.29813038919
 13993.428234406043 -4087.836294208058 -999893.73113380396
 13905.892350835671 -4069.6803885243098 -999895.02642000467
 13738.466327651853 -4015.9545516853368 -999897.55807882769
 13453.787916990275 -3917.4050910697511 -999901.81994435692
 12998.137170108403 -3761.7365272811444 -999908.444693016
 12293.946848429656 -3532.5229789134114 -999918.18672944012
 11229.5487504952 -3207.6769059795315 -999931.8016963593
 9646.1789005563242 -2757.3875526320608 -999949.6727568357
 7324.6607515928144 -2141.6053300087237 -999970.88101178466
 3981.7629589714898 -1307.9117396152719 -999991.21742674301
 -690.49836877755058 -193.88445792384863 -999999.74281037657
 -6838.6670092445538 1244.3292658361408 -999975.84184729948
 -13836.10841149563 2851.9974338476727 -999900.2091282222
 -19389.216448255298 3574.3914395096613 -999805.62211429863
 46463.417673745054 3175.2356926638813 -998914.94567674329
 40224.107668769284 2364.9837524787599 -999187.88424104778
 33169.527720167505 1192.2149301821198 -999449.02874252736
 27378.080299984656 131.64619740093144 -999625.14143471105
 23086.590143550799 -715.07375921021981 -999733.2134249931
 20039.3353501477 -1371.248537429143 -999798.2520069601
 17919.809203468853 -1879.7094289691454 -999837.66038821195
 16463.626166126749 -2277.9636704855757 -999861.87040759681
 15473.796609064944 -2594.782790932572 -999876.90678441478
 14810.068511827831 -2851.4324172050624 -999886.25913343008
 14374.370472528066 -3063.4551538045598 -999891.99052499619
 14098.403766353869 -3242.1448938698845 -999895.35627870972
 13934.409422341958 -3395.6360450261682 -999897.14565544215
 13848.660465344561 -3529.6882754758758 -999897.8727370078
 13816.983264744862 -3648.2483039082613 -999897.88541519304
 13821.661596396174 -3753.8496294805841 -999897.42988152243
 13849.255479248153 -3847.8899715391281 -999896.69059630227
 13888.970796164102 -3930.8169894337566 -999895.81715697702
 13931.34245843556 -4002.2403294174001 -999894.94436648255
 13967.024869602357 -4060.9846410988016 -999894.20971422631
 13985.541726414858 -4105.0852870840299 -999893.77080638148
 13973.817827858255 -4131.7258791915046 -999893.82499172026
 13914.313764796787 -4137.1008427467732 -999894.63258338964
 13782.494392938876 -4116.1826107309389 -999896.54459300137
 13543.290686371489 -4062.3523635343504 -999900.03328865778
 13146.06219467373 -3966.8471065459107 -999905.71814186918
 12517.467818685194 -3817.9540766359191 -999914.36444631428
 11551.626249764147 -3599.8963766959582 -999926.79765924008
 10097.423080595794 -3291.4197609188323 -999943.60271121748
 7944.6694182929314 -2864.4274231772338 -999964.33800579701
 4816.7632660741247 -2284.1907846493127 -999985.79053109454
 394.90875905847241 -1516.845398047124 -999998.77161280077
 -5551.5137336056196 -563.79194962494091 -999984.43129575916
 -12719.179111778902 425.08623846256802 -999919.01761313272
 -18981.563789576849 985.2423331299525 -999819.34844933217
 45783.207364214381 788.56574593129983 -998951.08793549531
 39339.020665977012 335.46233034174986 -999225.86481639207
 32288.969404544281 -332.13810957760734 -999478.52009889064
 26632.769645902903 -980.26024214898337 -999644.80425341392
 22492.161606485952 -1524.3046024964435 -999745.8572866139
 19572.694323108131 -1959.7497843065232 -999806.51579078892
 17552.232106326635 -2305.8220043053343 -999843.28888729878
 16170.357689693285 -2583.7645298437283 -999865.91285683995
 15235.591136283323 -2811.0634227276469 -999879.98014019721
 14612.490006455828 -3000.9148611265996 -999888.72863224521
 14206.723954157094 -3162.9817449075613 -999894.07666060887
 13952.825818718866 -3304.2479581539328 -999897.19501411926
 13805.183530848948 -3429.699643874952 -999898.82191551372
 13731.736212795618 -3542.8213527273015 -999899.43886245124
 13709.635146156095 -3645.9487280081589 -999899.37141796027
 13722.261950460093 -3740.5158966898671 -999898.84891812399
 13757.116866054881 -3827.2275480204626 -999898.04183468106
 13804.252477870354 -3906.1740148283739 -999897.08691349474
 13854.992101268967 -3976.9044271793168 -999896.10631557647
 13900.763776081307 -4038.4632925943783 -999895.22430136439
 13931.878866985235 -4089.3953731707156 -999894.58424211794
 13936.115275307571 -4127.7125576544631 -999894.36776095245
 13896.906516102452 -4150.8168125732336 -999894.81782289047
 13790.905775798416 -4155.35957757498 -999896.26657202013
 13584.569731845069 -4137.0186712069199 -999899.16718722926
 13229.304072010118 -4090.1592362401529 -999904.12345944066
 12654.549341905085 -4007.3547579676733 -999911.89786340517
 11758.150932431952 -3878.763498768044 -999923.34760239022
 10393.624059819385 -3691.485226892938 -999939.17090777203
 8355.3463407891431 -3429.4052904719483 -999959.21285164391
 5367.3980173954205 -3075.1490727568389 -999980.86706531711
 1096.356257412109 -2618.4384557541543 -999995.97088338819
 -4745.6623607929823 -2079.6133802150348 -999986.57685838279
 -11984.030435737594 -1554.2539786010539 -999926.98098865489
 -18512.454460961155 -1229.5529479601287 -999827.8738009755
 45296.253784552115 -1038.9246911371781 -998973.05770905141
 38795.44216518601 -1270.7990879898164 -999246.36538587697
 31765.30764843987 -1599.4168615588592 -999494.07556808589
 26183.698807550129 -1928.2710993500616 -999655.28843062848
 22126.744443865875 -2216.5403290018671 -999752.71649007581
 19279.343207516606 -2458.2444460134498 -999811.11414093128
 17315.150558458223 -2660.1773905698196 -999846.54273412807
 15975.500178401177 -2831.2976278505648 -999868.37491131423
 15071.899463947726 -2979.319630779532 -999881.97378544952
 14471.609221069055 -3110.1388754005584 -999890.44378008146
 14082.431280811676 -3228.0675309819085 -999895.62690774736
 13840.521062873191 -3336.1900336850044 -999898.64977044926
 13701.519158828134 -3436.660648701597 -999900.22389052715
 13634.354372476995 -3530.9232114985512 -999900.81356208539
 13616.996385243749 -3619.8676075335284 -999900.73205691192
 13633.52417681736 -3703.9411186498519 -999900.19893922901
 13672.061817295669 -3783.2266017235856 -999899.37589846714
 13723.230489487809 -3857.4980921900983 -999898.39116452308
 13778.89295108142 -3926.2581222446306 -999897.35803541366
 13830.993657137044 -3988.7621867476873 -999896.39132795832
 13870.359738504041 -4044.0284736269664 -999895.62403004279
 13885.296649874797 -4090.8337153263124 -999895.22631946718
 13859.81519979875 -4127.687230288886 -999895.42839276767
 13771.235554146759 -4152.7797570642242 -999896.5483946834
 13586.846192124676 -4163.8940450607888 -999899.02470046084
 13259.135255474512 -4158.2714567584653 -999903.44739418174
 12718.987180022801 -4132.423046838242 -999910.57122368505
 11866.113393739999 -4081.8993713498326 -999921.26362551609
 10556.183390983388 -4001.0857600870063 -999936.27712217544
 8585.2209525744493 -3883.2865927274129 -999955.6060478054
 5675.9907298182834 -3721.8318361849074 -999976.96528321004
 1485.0745307369564 -3513.86871040815 -999992.72361368907
 -4302.5826339277146 -3269.2142281431661 -999985.39990392292
 -11552.760486159083 -3023.4121225182694 -999928.69380985701
 -18150.106506126282 -2841.8524202919402 -999831.23451342399
 45053.276485548158 -2589.6986122597796 -998981.22892225266
 38553.922691574706 -2662.7789826826393 -999252.97330214723