# OOMMF OVF 2.0
#
# Segment count: 1
#
# Begin: Segment
# Begin: Header
#
# Title: Oxs_TimeDriver::Magnetization
# Desc: Oxs vector field output
# Desc:  MIF source file: /mnt/gpfs/work/plgrid/groups/plggspinsym/MF/switching-obrazki/p-ap/Anisotropy.mif
# Desc:  Iteration: 5800, State id: 40673
# Desc:  Stage: 0, Stage iteration: 5800
# Desc:  Stage simulation time: 8.53195e-10 s
# Desc:  Total simulation time: 8.53195e-10 s
# meshunit: m
# meshtype: rectangular
# xbase: 1.0000000000000001e-09
# ybase: 1.0000000000000001e-09
# zbase: 3.4999999999999998e-10
# xnodes: 35
# ynodes: 35
# znodes: 5
# xstepsize: 2.0000000000000001e-09
# ystepsize: 2.0000000000000001e-09
# zstepsize: 6.9999999999999996e-10
# xmin: 0
# ymin: 0
# zmin: 0
# xmax: 7.0000000000000005e-08
# ymax: 7.0000000000000005e-08
# zmax: 3.4999999999999999e-09
# valuedim: 3
# valuelabels: Magnetization_x Magnetization_y Magnetization_z
# valueunits: A/m A/m A/m
#
# End: Header
#
# Begin: Data Text
 -0 0 -0
 0 0 -0
 -0 -0 0
 -0 0 0
 0 0 0
 -0 0 -0
 0 0 0
 0 -0 0
 -0 0 0
 0 0 0
 0 0 0
 -0 -0 0
 0 0 0
 1272.5920161537381 -35095.74958801522 -999383.1441796564
 4090.8125286292552 -34821.473688997219 -999385.17610728135
 6801.7506834783362 -34582.88463395182 -999378.68712417234
 8885.3367581860075 -34515.718688372806 -999364.65614615311
 10562.665557813809 -34621.07359685241 -999344.69096469157
 12158.219629762101 -34874.516602269636 -999317.74015434785
 14005.068695210277 -35254.19404192653 -999280.24090006715
 16382.759546276084 -35719.989622127177 -999227.54542248475
 18972.760222655554 -36119.966221442533 -999167.34454729629
 0 0 0
 -0 0 -0
 -0 0 -0
 -0 0 0
 0 -0 0
 -0 0 0
 -0 -0 0
 0 0 0
 0 -0 0
 0 -0 -0
 0 -0 0
 -0 -0 0
 0 0 -0
 -0 -0 -0
 -0 -0 -0
 -0 -0 -0
 -0 0 -0
 0 0 -0
 0 0 -0
 -0 -0 0
 0 0 0
 0 0 -0
 0 0 0
 -3581.4960005363391 -32662.113710319776 -999460.03382545139
 -1068.0680233090186 -31887.49181537523 -999490.89395372756
 801.35449461491783 -30650.450367317022 -999529.84333798394
 2371.8823575239799 -30167.542471175286 -999542.04191486223
 4870.8288160842367 -29093.684918541512 -999564.82157212042
 7215.8083054405142 -28451.203067665578 -999569.13775611436
 9084.8049783570059 -28205.772597028685 -999560.8539307199
 10633.458966712431 -28236.428031370637 -999544.71319818019
 12122.889735829942 -28480.278804414178 -999520.83983460569
 13832.420119113562 -28937.63350582213 -999485.50640853785
 16005.25066760868 -29674.719156809144 -999431.45987808076
 18562.95451932896 -30748.793826713125 -999354.75602896675
 20639.238533102773 -31423.796477141794 -999293.03352306888
 22412.083181584148 -33259.606835213854 -999195.42486974422
 24589.018658478148 -34475.202033920548 -999103.01801472553
 -0 0 -0
 0 -0 0
 -0 0 -0
 0 -0 -0
 -0 0 0
 -0 0 0
 -0 0 -0
 -0 0 0
 -0 0 -0
 -0 0 0
 0 -0 -0
 -0 0 -0
 -0 0 0
 -0 0 0
 -0 -0 0
 0 0 -0
 0 -0 -0
 -0 -0 0
 -8621.3755842842838 -29969.545299512047 -999513.63084130839
 -5722.9031409937406 -29004.712154180539 -999562.89199454174
 -2797.6453081445798 -28155.024466993411 -999599.65375043673
 131.0724871731563 -26459.263751264294 -999649.88380019518
 2355.6308530845567 -24810.928519719637 -999689.38617416227
 4171.7239923110546 -23416.460221264308 -999717.09303664404
 6092.7356647222077 -22204.326677369594 -999734.88808229787
 7876.1589941079537 -21454.442158047088 -999738.80240350112
 9384.8487820024784 -21121.337644195319 -999732.8711758249
 10697.085522822448 -21096.547306622666 -999720.21488667349
 11980.220688122507 -21320.707524349953 -999700.90614289464
 13420.25288928428 -21804.114973740336 -999672.18495994946
 15160.900451310719 -22629.620472156879 -999628.95485014434
 17168.310623256813 -23898.906299842871 -999566.95192869112
 19168.490196341758 -25497.308645451023 -999491.09862741234
 21333.809047103259 -27492.46171537798 -999394.33315402083
 24133.554951039951 -29438.553917682806 -999275.20887324191
 27154.503855729283 -30577.941988231822 -999163.46129355312
 29841.644511982191 -32094.383211296707 -999039.25189108914
 -0 0 -0
 -0 -0 -0
 0 0 -0
 -0 0 0
 -0 0 -0
 0 0 -0
 0 -0 -0
 -0 -0 -0
 -0 -0 0
 0 0 0
 0 0 0
 0 0 -0
 -0 0 0
 0 0 0
 -0 -0 -0
 -11152.414428159202 -26984.362050377611 -999573.64303844911
 -7848.1913836130934 -26114.906004058539 -999628.13964814192
 -4003.2857844264063 -24076.497233108235 -999702.10362082988
 -735.6492370248352 -22076.385675749876 -999756.01624381135
 1968.6493209176074 -20169.922308040768 -999794.62823818927
 4055.130268333548 -18563.331427671361 -999819.46302560729
 5717.3494805243945 -17263.692545967988 -999834.62474281003
 7203.3318745164861 -16258.677814489163 -999841.8712004564
 8531.8352840931002 -15613.176210247037 -999841.70572911832
 9693.9009610718385 -15301.533488647847 -999835.93221940787
 10746.321697091662 -15263.453241678111 -999825.75660217996
 11792.218232155143 -15462.531133873119 -999810.90898234304
 12945.81335944654 -15907.977693113993 -999789.64895730827
 14294.025606940564 -16653.220221175208 -999759.1465389115
 15852.325049329103 -17758.72298060952 -999716.62562379544
 17594.732726407434 -19215.612580146906 -999660.53518854908
 19663.211192526385 -21014.477507882631 -999585.78914501821
 22295.505624951362 -23080.206762310372 -999484.97461679566
 25490.348478498472 -25269.674463250365 -999355.63524051139
 29208.615094067813 -27527.439770052155 -999194.22379434947
 32632.765256082283 -28511.64014721135 -999060.65331783425
 -0 -0 -0
 0 -0 0
 -0 0 -0
 -0 -0 -0
 0 -0 -0
 0 -0 -0
 0 0 -0
 0 -0 -0
 -0 0 -0
 0 0 -0
 -0 0 0
 -0 0 0
 -0 0 -0
 -12372.221646043332 -25187.177903287855 -999606.18955707201
 -9421.7344712620397 -23699.291365966565 -999674.73435528239
 -5370.5533735869494 -21175.92289117982 -999761.34024384455
 -1605.7440467210067 -18680.100269044386 -999824.22227109247
 1408.6967901375301 -16582.535238118275 -999861.50795919227
 3742.3854067074608 -14860.829250256626 -999882.56825762428
 5521.4828673642724 -13496.367004687218 -999893.67499980726
 6911.929326790565 -12443.459460864196 -999898.68764271692
 8069.5634547024647 -11669.641252736785 -999899.34574370191
 9069.2084168360034 -11170.350799000056 -999896.48100276815
 9953.0356820486049 -10923.276628156667 -999890.8035922806
 10774.088708651769 -10896.346209245359 -999882.58743303781
 11601.582746145323 -11070.42281498334 -999871.41624134919
 12508.976276407046 -11451.727395710093 -999856.18138418824
 13557.838285505644 -12070.148960432658 -999835.23468874476
 14788.714989031054 -12961.11706539099 -999806.63298129325
 16247.080236131338 -14142.263401131677 -999767.98746993975
 18046.845220839237 -15630.514100985885 -999714.95857895096
 20350.704095798752 -17444.490212985547 -999640.70475547074
 23293.35453716241 -19604.506741712798 -999536.434028205
 26980.455353968966 -22128.553224163119 -999391.0056434857
 31124.446621101419 -24686.296320089896 -999210.61623489927
 34395.02651694954 -26352.120700112966 -999060.83292535541
 0 -0 -0
 -0 0 -0
 0 0 0
 0 0 -0
 0 -0 0
 -0 0 0
 -0 0 0
 0 -0 0
 -0 -0 -0
 -0 -0 -0
 0 0 0
 -13134.457678891793 -24014.54051909332 -999625.32374141982
 -10327.683893426682 -22252.324784370587 -999699.04120544624
 -6370.2210189381794 -19357.806685624106 -999792.32623805013
 -2487.4582920808762 -16503.731566122871 -999860.70999696699
 776.85049817961669 -14115.182931351485 -999900.07406446268
 3319.8227864638284 -12240.370169759441 -999919.57282312145
 5246.4078770386768 -10792.772494322084 -999927.99304063572
 6699.1571607834685 -9691.1272823946656 -999930.599264435
 7817.2777653296707 -8870.453383242806 -999930.10016956448
 8716.9221966189616 -8287.1401571911483 -999927.66667166119
 9475.5200535793174 -7916.2087963601853 -999923.77117358649
 10146.879496207313 -7735.9769489891059 -999918.59443513409
 10780.06971382592 -7726.9131085759418 -999912.03858678369
 11426.558181783865 -7878.6873116683046 -999903.67538796621
 12138.441548977004 -8195.3095619648338 -999892.74181681382
 12964.319996373246 -8694.1584155090732 -999878.16158593923
 13950.397236236569 -9398.9296677815764 -999858.51325977687
 15155.240804195693 -10333.51003638466 -999831.75446996826
 16672.240880073936 -11529.058124352825 -999794.53749398026
 18628.541059555409 -13032.415760545302 -999741.53339622589
 21166.583080322926 -14912.897579065886 -999664.73442174587
 24419.600254808367 -17256.579840106289 -999552.84681482299
 28370.080760803619 -20064.681039745246 -999396.09119327576
 32566.556541773894 -23041.184269573656 -999203.9447592604
 35768.089121805475 -25104.666496152768 -999044.74350285833
 0 -0 0
 0 0 0
 0 -0 -0
 0 -0 0
 0 -0 -0
 -0 -0 0
 0 -0 -0
 0 -0 0
 0 0 -0
 -14065.607319813435 -22872.532498347107 -999639.43797143036
 -11143.166792321408 -21142.694367142973 -999714.36736136593
 -7136.3074296614686 -18168.245055274401 -999809.47584421339
 -3206.6578790096887 -15144.122445698336 -999880.17927179486
 164.27327948564758 -12558.3256320725 -999921.12762537843
 2856.649388551456 -10512.307608844818 -999940.66371110652
 4917.6774578946506 -8951.9028114661924 -999947.83858183026
 6463.8309913663215 -7779.9475122906251 -999948.84434436006
 7620.7250157727603 -6910.6337484397636 -999947.08244558051
 8500.8828765176386 -6279.5461566126587 -999944.14958555903
 9195.5407368959532 -5842.6929270415039 -999940.65072378982
 9772.3476628638746 -5571.6469446548144 -999936.72698400286
 10282.231988839067 -5446.48747602205 -999932.30344833911
 10768.414689312056 -5453.3679564329614 -999927.14835782454
 11271.781396779481 -5585.8993648985816 -999920.86920537287
 11832.50607493835 -5846.710286852116 -999912.90009620751
 12490.689660537761 -6247.0068471047207 -999902.47403297119
 13289.620618483537 -6804.4214606271617 -999888.53670416819
 14284.091162689978 -7542.3413065702662 -999869.53040247736
 15550.476559194771 -8494.4275820531875 -999843.00136513193
 17189.855877458183 -9711.6403787655036 -999805.0774506327
 19323.79731466997 -11268.979256576835 -999749.76917419524
 22079.938635189832 -13264.430402934224 -999668.21055585833
 25540.062484506536 -15784.622496485916 -999549.173828347
 29636.288570226534 -18811.211379298977 -999383.72446534561
 33943.728489823145 -21972.349802250104 -999182.18515963177
 37271.702640218035 -24128.677555549915 -999013.82728254539
 0 -0 0
 0 -0 0
 0 0 -0
 0 0 -0
 0 0 -0
 0 -0 0
 -0 0 -0
 -15831.081159094894 -21190.852291610307 -999650.1011096281
 -12459.469009771825 -19849.323446737446 -999725.3452777426
 -8125.6746436392868 -17097.302450474115 -999820.81177604175
 -3977.5754106077738 -14143.543044553988 -999892.06371687923
 -451.70067625048688 -11524.57748863925 -999933.48782816925
 2374.0109844655599 -9395.482750448522 -999953.04338540428
 4557.1022060502291 -7744.6060621443676 -999959.62613318849
 6202.4150931833155 -6498.9674413646417 -999959.64592037827
 7425.4799728342914 -5574.3551296166679 -999956.89347694465
 8333.2928903839565 -4898.4798108222212 -999953.27947116923
 9016.7342332032949 -4416.6406849424102 -999949.59462406312
 9548.7861539972728 -4090.4240033122614 -999946.04310155567
 9985.8684610515375 -3894.0449139742855 -999942.55777283874
 10372.132984827913 -3810.3603420521599 -999938.94814203971
 10744.539428321483 -3828.7107168293624 -999934.94580733601
 11136.687376499853 -3944.5602952506893 -999930.20488349861
 11581.176884814346 -4159.6831327476002 -999924.28382262925
 12111.62549901224 -4481.9980688593378 -999916.60663331428
 12765.869218391084 -4925.2582081911751 -999906.38282525295
 13591.088779780404 -5509.910021848189 -999892.45581578987
 14649.519501407758 -6266.355625005036 -999873.05412515183
 16022.04429962762 -7239.8868449601614 -999845.42712107918
 17808.689225690679 -8495.5484897418646 -999805.31917164812
 20123.982456050864 -10118.787204372806 -999746.28555230005
 23080.368868140034 -12202.518371590548 -999659.13946619909
 26753.193970051056 -14807.631930745514 -999532.39099541155
 31099.016010838026 -17862.549512927584 -999356.68333586294
 35732.258853203093 -20934.158166602778 -999142.11536652944
 39480.686966774039 -22844.911290282427 -998959.15100907441
 0 0 0
 0 0 0
 -0 0 0
 0 -0 0
 -0 0 -0
 -18966.964502808634 -18268.301805083433 -999653.20156877779
 -14955.830708846921 -17904.062719482543 -999727.84679929016
 -9910.0462449213865 -15775.777768195436 -999826.44284857344
 -5213.2961459950766 -13155.8766676132 -999899.86721291265
 -1312.6831723665582 -10688.088888919425 -999942.01912850502
 1764.0495023717476 -8601.1987621085627 -999961.45301166887
 4122.4830334382414 -6934.4263633335204 -999967.45890286379
 5895.1942565331547 -5649.320585578691 -999966.66537520115
 7208.3201083409022 -4681.6679619291126 -999963.06037088716
 8172.3287120845507 -3966.0505509977879 -999958.74089206732
 8879.7118735453842 -3446.8563187040372 -999954.63392023987
 9405.5534924867388 -3081.279903140125 -999951.01943928178
 9809.4385116183548 -2838.4579374982554 -999947.85767690081
 10138.147220350194 -2697.1640687200797 -999944.97012431885
 10429.021780226967 -2643.403226546628 -999942.12228712998
 10713.38400188466 -2668.8031554920481 -999939.04858893529
 11019.387448844122 -2769.9027697810734 -999935.44828598725
 11374.263264486815 -2947.9359432559017 -999930.9655215526
 11806.459471344098 -3208.7928955367988 -999925.15278039954
 12348.325753651236 -3563.2795484794606 -999917.40753421281
 13039.629882238449 -4028.195381876244 -999906.86651032639
 13931.461007843502 -4628.6451997235472 -999892.23921270738
 15089.695905460216 -5401.2743794015532 -999871.55540727288
 16597.608352719817 -6397.4006608687687 -999841.78381469648
 18557.03889421884 -7683.8443181088396 -999798.27707591769
 21086.63486660723 -9337.3749910387287 -999734.04826397658
 24314.435329164389 -11426.368045565661 -999639.0580344043
 28352.010258951959 -13965.19300257463 -999500.44367107563
 33205.878351378669 -16807.412356572753 -999307.20028066926
 38511.627508175072 -19400.762257247181 -999069.79984909424
 42941.80669441614 -20446.365193875568 -998868.33335939632
 0 0 0
 -0 -0 -0
 0 -0 -0
 0 0 -0
 -17936.590858291005 -15756.438740103667 -999714.96605112962
 -12902.379816858122 -14241.106208836858 -999815.34269534505
 -7390.0207095573787 -12068.644646519529 -999899.86269141396
 -2782.2917010481174 -9873.9483634909557 -999947.38061390282
 789.3503584209235 -7933.3534092532727 -999968.21890982916
 3476.2682723506373 -6330.1764943962635 -999973.92187218997
 5466.0671426236031 -5059.3811840279623 -999972.26200131525
 6923.4844840616433 -4080.273419807927 -999967.70784431766
 7981.4767158506993 -3342.0698359799699 -999962.56259854359
 8744.8446263438218 -2796.1544353804247 -999957.85371826263
 9295.6196280958702 -2401.4666649998685 -999953.91114470188
 9697.8419128880014 -2125.969253723164 -999950.71484396898
 10001.510600678543 -1946.0742306175907 -999948.08994306973
 10245.951530798035 -1845.2415603171526 -999945.80631192843
 10462.838432173996 -1812.5018298562497 -999943.62033519626
 10678.866661666061 -1841.3471940339944 -999941.28389987664
 10918.01593401764 -1929.0975845450102 -999938.53586636705
 11203.495847969267 -2076.6373018005788 -999935.08252201136
 11559.652135792103 -2288.4296701015596 -999930.56635555672
 12014.15791798811 -2572.8776027688677 -999924.51730636298
 12600.669387803111 -2943.2306417881673 -999916.27675739373
 13361.890383895838 -3419.164017736789 -999904.88007749442
 14352.91809441837 -4028.8417274784933 -999888.87491386232
 15644.934157080899 -4810.8737844074549 -999866.03679125488
 17329.43398436061 -5815.0108266973257 -999832.92422627646
 19523.045929415694 -7099.609887093312 -999784.19982368639
 22371.842803066207 -8722.6244257010385 -999711.66666830645
 26047.696211863269 -10719.346728860844 -999603.22784981085
 30705.446464280667 -13051.38498426936 -999443.2634759323
 36273.349867844809 -15490.319604667915 -999221.84428079345
 41498.87052524116 -17369.722259926682 -998987.55572516634
 -0 0 -0
 -0 -0 -0
 0 0 -0
 -21373.81620869548 -13303.942791678397 -999683.0323091778
 -16920.366179071581 -12930.767124304608 -999773.22252095898
 -10800.612570748186 -11104.365920004688 -999880.01271433127
 -5224.3503687504945 -9119.9124433559009 -999944.76515468094
 -849.54858495599831 -7332.5537261872341 -999972.75559039845
 2405.5119529622521 -5828.2022688312672 -999980.12258772319
 4775.5589087395101 -4611.0995789453427 -999977.96565613488
 6482.4297602035977 -3653.5201070699286 -999972.31456437393
 7702.2837238050097 -2916.5125858837919 -999966.08381473355
 8568.1006658244605 -2360.1018822989977 -999960.50800523383
 9179.1613072856708 -1948.2715846899971 -999955.97264855984
 9609.8852698934079 -1651.0703930460736 -999952.46090584574
 9916.6120317645436 -1445.0255274303213 -999949.78509274987
 10142.574880682241 -1312.6269113257592 -999947.70122510975
 10321.606561403265 -1241.4192269184207 -999945.96019799716
 10481.017144505373 -1223.0672088864094 -999944.3246432367
 10643.905041554921 -1252.6145065258693 -999942.56747193448
 10831.063004756157 -1328.013971270376 -999940.46045406081
 11062.645785732382 -1449.9172812177198 -999937.75586688239
 11359.806363772463 -1621.708355948819 -999934.16026325745
 11746.51440290036 -1849.8185164822416 -999929.2962859117
 12251.724075614518 -2144.3990790801536 -999922.64541301609
 12912.009138680194 -2520.3793388027207 -999913.46010941931
 13774.825776054588 -2998.793386374633 -999900.62576891354
 14902.734651098217 -3608.0614522533615 -999882.43828585953
 16379.116434398302 -4384.6617354028795 -999856.23930957902
 18315.969468179697 -5372.3100332059194 -999817.81517801923
 20863.638993283173 -6618.2650192253477 -999760.42486992513
 24218.419048933236 -8164.2042992516217 -999673.35362453782
 28609.103934438179 -10026.227200992818 -999540.39135003579
 34186.909972187983 -12147.78825046129 -999341.62648574566
 40539.819432318705 -14235.683347671975 -999076.50776105234
 45666.945692585861 -15101.799671411552 -998842.56302872626
 -0 -0 0
 0 0 -0
 -20620.764826371105 -11171.306212599025 -999724.95516290877
 -15180.266086670892 -10183.208622573853 -999832.91693346808
 -8798.0270207708763 -8507.3997094381866 -999925.10663085443
 -3412.2111637570042 -6839.7989524217401 -999970.78655591956
 673.27804566308225 -5411.5087547600569 -999985.13102429197
 3641.2166387192647 -4249.9229328609308 -999984.33972560533
 5755.3435070096984 -3328.7246188027643 -999977.89756250544
 7245.2080772056206 -2610.9605262954196 -999970.34448279918
 8286.6767456081252 -2060.4191569687819 -999963.54216611898
 9008.8601644975606 -1644.9272657585373 -999958.066447202
 9505.5984672058657 -1337.3586004173103 -999953.92647349229
 9845.4742499210715 -1115.7727438722957 -999950.90963905747
 10079.318804253993 -963.0931010883213 -999948.73857819382
 10245.572647811872 -866.52977027333486 -999947.13728640461
 10374.102600252867 -816.91046543698462 -999945.85386036313
 10488.985157961597 -808.05193841793391 -999944.66259009612
 10610.614429984249 -836.26211311922987 -999943.35615928588
 10757.383978688034 -900.01376671806929 -999941.7326350346
 10947.142871568703 -999.79725987509539 -999939.57840881008
 11198.612725066943 -1138.1567654402174 -999936.6458292302
 11532.946082752873 -1319.9311914147127 -999932.62219826691
 11975.601288262238 -1552.7290789406013 -999927.0843447498
 12558.728696243914 -1847.6406831997174 -999919.42903287953
 13324.347060544411 -2220.1278838057469 -999908.76224163058
 14328.752092563196 -2690.9531246781421 -999893.71716935514
 15648.79643499285 -3286.927421746364 -999872.14746599481
 17390.753852467915 -4041.1762496279516 -999840.60258371301
 19701.886223218651 -4992.4673439201597 -999793.43413980631
 22781.74144224422 -6182.5222894290364 -999721.34551333834
 26878.502980153095 -7647.4045400870018 -999609.45537812216
 32214.025849469377 -9385.688583293324 -999436.92416699661
 38641.640618509089 -11232.502276168681 -999189.99920081557
 44438.052334043903 -12527.808713027693 -998933.58813967509
 0 0 0
 -0 -0 0
 -19182.87808297325 -9616.5245077759482 -999769.74331335176
 -13369.399286878404 -8139.1332702605187 -999877.49933295185
 -7055.2766134363901 -6510.53356689054 -999953.91695046739
 -1936.690603848687 -5100.2865732412547 -999985.11804245145
 1863.8050277627553 -3963.1843463810487 -999990.40965434024
 4582.7227844017152 -3069.7568305961713 -999984.78750673099
 6490.9919375061509 -2375.8957132403593 -999976.11078626604
 7813.9502007778856 -1841.6307679137456 -999967.77476995438
 8721.4275513534776 -1434.2099189250698 -999960.93910881074
 9336.7134413567928 -1127.4519040158932 -999955.77633929322
 9748.3630977456323 -900.64387595392304 -999952.07798050181
 10020.261126649379 -737.61140639921564 -999949.52387426386
 10199.162645905983 -625.96667474335163 -999947.79126064607
 10320.066846840993 -556.4712666118412 -999946.59185378801
 10409.994770450514 -522.48754153359346 -999945.67803238588
 10490.674871006984 -519.52452160076052 -999944.83639599953
 10580.514655098323 -544.89388028665599 -999943.87632521277
 10696.133223075065 -597.48655047241255 -999942.61622549943
 10853.666177634388 -677.6743119345557 -999940.86759569484
 11070.023330367865 -787.34192414498364 -999938.4154417509
 11364.270393677969 -930.06156865888988 -999934.99205893278
 11759.316785846531 -1111.4231182656317 -999930.2391704045
 12284.135058018466 -1339.5232604532164 -999923.64993698942
 12976.830419725484 -1625.5964551171105 -999914.47599703376
 13889.02664717283 -1984.7542872565316 -999901.57300066948
 15092.202552458361 -2436.8032058881427 -999883.13687763107
 16686.665617841438 -3007.1418918285044 -999856.24581146683
 18813.340457876613 -3727.7528239291178 -999816.06412364647
 21666.075713294733 -4638.0182185886206 -999754.50484115863
 25493.213004767273 -5783.3176612361685 -999658.2662727912
 30545.77993656517 -7201.7093677960274 -999507.42403958598
 36808.459315396598 -8862.175416839098 -999283.04257087654
 42809.680037806211 -10423.809144260307 -999028.86619856209
 -0 0 -0
 -23120.433656372315 -8400.9886765024858 -999697.38868159405
 -18420.221645379817 -7864.5203535763712 -999799.40225734457
 -11771.293055730786 -6312.2458364824279 -999910.79212712578
 -5603.9029349358871 -4870.804981064487 -999972.43538546201
 -765.97997546964871 -3726.8337122138832 -999992.76196638483
 2778.7601492920844 -2847.0693276468378 -999992.08631282498
 5290.9168089825826 -2175.0531594970034 -999983.63753767184
 7036.7803672256441 -1662.4493467898287 -999973.85965045763
 8232.6157228978591 -1272.1801806223214 -999965.30219600489
 9040.2681262419101 -976.51232089367966 -999958.65913341276
 9576.8027878135526 -754.679992743512 -999953.85658862861
 9925.9539683843341 -591.02959811952007 -999950.56183884991
 10147.792704788762 -473.73251428635837 -999948.39760895923
 10286.003388291221 -393.90456973549448 -999947.02008330717
 10373.092754636051 -344.98269007262496 -999946.13851629396
 10434.049339450541 -322.26574252050801 -999945.5118951099
 10488.923439523285 -322.57303283812814 -999944.93769993074
 10554.693934157523 -344.00073454354873 -999944.23849505279
 10646.695891696487 -385.7686346613894 -999943.2479141755
 10779.819551640012 -448.15511258598178 -999941.79562984011
 10969.657142793661 -532.52265000742079 -999939.68970223237
 11233.764995666896 -641.44040062273109 -999936.69353526295
 11593.225320689042 -778.9123482042844 -999932.4929325066
 12074.740947649878 -950.71867697735206 -999926.64569209493
 12713.586029594477 -1164.8782690526778 -999918.5005733649
 13557.865817568987 -1432.2517348791939 -999907.06214599824
 14674.680413048813 -1767.3399204656248 -999890.75916541019
 16158.831470264053 -2189.4022580608407 -999867.04050252016
 18144.324235833032 -2724.1089277107303 -999831.66719632084
 20817.134437415163 -3405.952332111794 -999777.49844779249
 24421.692801967147 -4281.2100305350159 -999692.57882679149
 29234.250184021701 -5408.9814538143964 -999557.95306515868
 35411.783463615291 -6845.3089901488875 -999349.36200347659
 42425.929931883104 -8504.3750799742393 -999063.4194453893
 48075.398256609849 -9478.5941924929484 -998798.73464807833
 -23011.615660383031 -5769.1210884932243 -999718.55178673414
 -17390.393777461548 -5332.8808816891451 -999834.55360662879
 -10488.296990597069 -4366.1362810417295 -999935.46415766852
 -4495.995408940269 -3386.6500780986553 -999984.15818778402
 108.42787911754179 -2579.127527746381 -999996.66816674499
 3451.5347940811171 -1953.5385139151992 -999992.13526649307
 5805.1911875440883 -1477.6565616117223 -999982.05798222311
 7429.3751198490545 -1117.239414324162 -999971.77768246026
 8531.8395087070785 -844.65022232511217 -999963.2464648888
 9267.2835356582054 -639.1567375102029 -999956.85353645869
 9747.3930629234765 -485.49273440457841 -999952.37517857912
 10051.935086777818 -372.41455433221518 -999949.40867446444
 10238.014226910611 -291.60957154027028 -999947.54763864866
 10347.042957482032 -236.93673621297091 -999946.43984716432
 10409.747593496022 -203.90638725102193 -999945.79631959274
 10449.691900732529 -189.31995058972157 -999945.38255703554
 10485.757009496021 -191.01864218742512 -999945.00469366636
 10533.925383646303 -207.71300885331775 -999944.49509526184
 10608.633170599154 -238.87934225124312 -999943.69833451719
 10723.896120015786 -284.71727322899795 -999942.45683843282
 10894.381190895074 -346.16823346670139 -999940.59454850678
 11136.588332372772 -424.99833500770859 -999937.89595990942
 11470.325239747455 -523.95217976632614 -999934.07638354215
 11920.706464552271 -646.98738758632021 -999928.73654311302
 12520.99132227104 -799.60695136904792 -999921.28960485233
 13316.691267536169 -989.32384147276673 -999910.83951121476
 14371.502292515273 -1226.3256247902395 -999895.97261281044
 15775.663738262852 -1524.4545339793654 -999874.39434760564
 17657.045819985888 -1902.6490870556195 -999842.291893758
 20193.85837257636 -2386.8768118177345 -999793.23407548317
 23623.103201777307 -3011.8501577211496 -999716.39866201323
 28223.847408819369 -3818.5946129376725 -999594.33410390315
 34207.439514543061 -4830.4055822638829 -999403.08097572415
 41307.769824855706 -5942.645393159064 -999128.7970616339
 47516.833853683755 -6666.7579486630366 -998848.18908529589
 -22848.89981019442 -3331.0627643526182 -999733.38035614463
 -16798.070746332123 -3113.8213024558336 -999854.05381790479
 -9714.9333346253025 -2632.2942988075974 -999949.34426551242
 -3782.3314303544457 -2087.2512463488074 -999990.66863205563
 690.12345196422825 -1603.3057322849493 -999998.47656901448
 3904.1556664678806 -1214.3540398888269 -999991.6414214659
 6151.6209748523852 -914.18132982695579 -999980.66072893527
 7693.1721475961585 -686.0610742282214 -999970.17176639312
 8732.257094368475 -513.71104454532724 -999961.74116163095
 9418.9448992299949 -384.07662515058917 -999955.56699391967
 9861.1510527953815 -287.35084842257089 -999951.33638062805
 10135.809077816131 -216.31729626479995 -999948.60797001235
 10297.928211049017 -165.68859405666592 -999946.96120436816
 10387.353099419703 -131.59813520402085 -999946.04133299051
 10433.609617960143 -111.24187817130502 -999945.56222605682
 10459.316518259229 -102.63266728993244 -999945.29458591214
 10482.585819989436 -104.43359178919742 -999945.05073436478
 10518.745750187043 -115.84838137241748 -999944.66975277977
 10581.641453146791 -136.55650334620293 -999944.00354043744
 10684.712755825663 -166.68727076982566 -999942.90293430246
 10842.017253805019 -206.8316466908864 -999941.20221267908
 11069.36017137425 -258.09361289954916 -999938.6994476628
 11385.711059834963 -322.18575698585198 -999935.1287858627
 11815.13389196374 -401.57755740526301 -999930.11823155941
 12389.53511010954 -499.71183979077989 -999923.12189879525
 13152.642090612397 -621.31757842456398 -999913.30722743308
 14165.744328890247 -772.86503129851883 -999899.36211963464
 15515.792330891492 -963.21931559196241 -999879.15889716125
 17326.243762507835 -1204.4989016628003 -999849.16385396745
 19769.953833404714 -1512.8707463276078 -999803.41075009829
 23079.598579964117 -1908.032037629742 -999731.80980857636
 27538.949046958747 -2407.1709727226353 -999617.83288079535
 33398.78038916982 -3002.0067974208746 -999437.59656303911
 40518.998317710721 -3600.7145904460672 -999172.28025489545
 46982.2023436163 -3971.2452383083973 -998887.83247880277
 -22735.531367910709 -1495.3246510669776 -999740.39611171372
 -16518.669160973139 -1410.5987902315803 -999862.56244556082
 -9332.9159341664636 -1218.1521586810516 -999955.70541173674
 -3403.8983287084211 -983.83315788962511 -999993.72275454062
 1012.811524284064 -763.49032169827672 -999999.19564734888
 4161.0197764545555 -580.22158458712249 -999991.17458972218
 6350.061721189626 -436.34986927770211 -999979.74295229046
 7844.6621752633664 -326.2589083726088 -999969.17694020981
 8847.3171922641668 -242.93641030073735 -999960.8322131423
 9505.9192876546713 -180.28747831475496 -999954.80147600768
 9926.3145810386068 -133.59089115360891 -999950.72400209401
 10183.795315923449 -99.3416171935379 -999948.13887731521
 10332.139852469441 -74.973964848844687 -999946.61920773238
 10410.276095150217 -58.619928053774856 -999945.80988937931
 10447.035819637478 -48.931091593587041 -999945.42703506129
 10464.497151752592 -44.955253466829994 -999945.24464011833
 10480.335057977136 -46.053371254099986 -999945.07871990628
 10509.506986378785 -51.845701044873273 -999944.77226241189
 10565.523120597976 -62.180368314322408 -999944.18136953539
 10661.496662381145 -77.120996005924468 -999943.16165533604
 10811.139575646153 -96.952428823972284 -999941.55322263821
 11029.863182405446 -122.2053339283588 -999939.16174136999
 11336.161217491732 -153.70214866519456 -999935.73184705258
 11753.498184216291 -192.62910950034546 -999930.90670028771
 12313.000767941909 -240.64296362051192 -999924.16317591455
 13057.355009045727 -300.02681664879776 -999914.70409434277
 14046.433652592556 -373.91522267628784 -999901.27407112042
 15365.264236763182 -466.60230784316121 -999881.83848753886
 17134.829879358731 -583.89018617364195 -999853.01753670583
 19525.357402979364 -733.22199673316265 -999809.0931791875
 22768.584470399808 -922.72608674300886 -999740.33635628759
 27154.588879766743 -1156.879416631306 -999630.57672961673
 32959.515315739343 -1424.58009284117 -999455.6723145406