# OOMMF OVF 2.0
#
# Segment count: 1
#
# Begin: Segment
# Begin: Header
#
# Title: Oxs_TimeDriver::Magnetization
# Desc: Oxs vector field output
# Desc:  MIF source file: /mnt/gpfs/work/plgrid/groups/plggspinsym/MF/switching-obrazki/p-ap/Anisotropy.mif
# Desc:  Iteration: 49900, State id: 349450
# Desc:  Stage: 0, Stage iteration: 49900
# Desc:  Stage simulation time: 7.34548e-09 s
# Desc:  Total simulation time: 7.34548e-09 s
# meshunit: m
# meshtype: rectangular
# xbase: 1.0000000000000001e-09
# ybase: 1.0000000000000001e-09
# zbase: 3.4999999999999998e-10
# xnodes: 35
# ynodes: 35
# znodes: 5
# xstepsize: 2.0000000000000001e-09
# ystepsize: 2.0000000000000001e-09
# zstepsize: 6.9999999999999996e-10
# xmin: 0
# ymin: 0
# zmin: 0
# xmax: 7.0000000000000005e-08
# ymax: 7.0000000000000005e-08
# zmax: 3.4999999999999999e-09
# valuedim: 3
# valuelabels: Magnetization_x Magnetization_y Magnetization_z
# valueunits: A/m A/m A/m
#
# End: Header
#
# Begin: Data Text
 -0 0 -0
 0 0 -0
 -0 -0 0
 -0 0 0
 0 0 0
 -0 0 -0
 0 0 0
 0 -0 0
 -0 0 0
 0 0 0
 0 0 0
 -0 -0 0
 0 0 0
 18052.899141646958 31196.589338015892 -999350.22171722003
 15694.005619320445 30559.355545364095 -999409.73778339429
 13613.006508197148 29875.535945418527 -999460.92390137096
 12037.078149525843 29372.667422842729 -999496.05059654417
 10668.175927199871 29101.449825264423 -999519.53239566751
 9178.3221811155618 29082.78271811286 -999534.86690125533
 7253.5812436195301 29336.897504832756 -999543.26169702783
 4681.6814827324642 29841.02776276138 -999543.69335239986
 1979.4392785965185 30368.791497357823 -999536.80188531929
 0 0 0
 -0 0 -0
 -0 0 -0
 -0 0 0
 0 -0 0
 -0 0 0
 -0 -0 0
 0 0 0
 0 -0 0
 0 -0 -0
 0 -0 0
 -0 -0 0
 0 0 -0
 -0 -0 -0
 -0 -0 -0
 -0 -0 -0
 -0 0 -0
 0 0 -0
 0 0 -0
 -0 -0 0
 0 0 0
 0 0 -0
 0 0 0
 22924.724417242596 29558.532885396453 -999300.13016313396
 20885.5865370342 27939.866866192639 -999391.39285592397
 19266.753294437378 25808.786969975936 -999481.21479727165
 17450.982808203378 25198.175686036182 -999530.14718972996
 15235.685300192677 24066.493719702987 -999594.25657287205
 13418.306818153236 23230.591761598651 -999640.07955290587
 12019.474888696299 22708.914008404849 -999669.86422916607
 10792.658350748145 22468.754884152819 -999689.28851902776
 9473.6592207200356 22520.870580129635 -999701.48552919668
 7824.3238164513332 22926.00824065417 -999706.54599385546
 5717.8296560754015 23780.446147350536 -999700.85365826159
 3495.0830099978702 25044.316610033718 -999680.23217441374
 2221.0711081023878 25604.65054363622 -999669.67980111879
 361.86905987047368 27108.241279271522 -999632.43860207358
 -2203.0272147486248 28204.841355176955 -999599.73669225257
 -0 0 -0
 0 -0 0
 -0 0 -0
 0 -0 -0
 -0 0 0
 -0 0 0
 -0 0 -0
 -0 0 0
 -0 0 -0
 -0 0 0
 0 -0 -0
 -0 0 -0
 -0 0 0
 -0 0 0
 -0 -0 0
 0 0 -0
 0 -0 -0
 -0 -0 0
 27570.325327699804 27432.505842906339 -999243.38115621451
 24944.735670690297 25454.57740653733 -999364.71052933112
 22163.037819223031 24070.258827769168 -999464.567853502
 19632.522240140508 21872.850969547137 -999567.97790893354
 17722.639665213759 19714.718134937037 -999648.55721006123
 16008.730059286279 18127.151202936853 -999707.52070350794
 14351.77392165552 16882.878405662588 -999754.46735788172
 12975.59778741783 16055.689935277805 -999786.90163592435
 11869.692184060472 15572.25123309284 -999808.28932300291
 10883.732017353999 15378.962532705598 -999822.50019130495
 9844.9082812831057 15479.351868882568 -999831.71956417372
 8606.9026211956916 15930.09989982518 -999836.06313457759
 7110.0149504337223 16816.240811405256 -999833.31697457342
 5482.4265353916162 18141.554309065359 -999820.39737471612
 3904.6452274995395 19626.850781950667 -999799.75018702133
 1797.0450012083593 21469.033754658492 -999767.89867393975
 -1039.4323464119379 23435.084560385163 -999724.82033409807
 -3864.0972949064362 24543.916593649134 -999691.28480263334
 -6872.9510285768138 25843.470162985661 -999642.37484917277
 -0 0 -0
 -0 -0 -0
 0 0 -0
 -0 0 0
 -0 0 -0
 0 0 -0
 0 -0 -0
 -0 -0 -0
 -0 -0 0
 0 0 0
 0 0 0
 0 0 -0
 -0 0 0
 0 0 0
 -0 -0 -0
 29765.925349771638 23683.014254176884 -999276.29038415011
 26510.519821269532 22457.055983586957 -999396.25423320243
 23025.141549704334 19903.462210033293 -999536.74021952262
 20129.484446118422 17537.071200571518 -999643.5639714984
 17829.337338028527 15360.771580768027 -999723.04236049799
 16090.461931013711 13510.942332344574 -999779.25137109065
 14682.687852711742 12079.495569603063 -999819.23589427117
 13480.447462383014 11023.887454707692 -999848.36422409548
 12492.198301053017 10320.964592538008 -999868.70271625498
 11679.858754119561 9913.9058842520808 -999882.64079820993
 10950.47729087928 9763.8401940565018 -999892.37144393043
 10197.37982807582 9870.4698326159905 -999899.28856356593
 9330.1396037860104 10267.830065191078 -999903.75544885627
 8299.4273391678435 11002.20313895704 -999905.0310064106
 7102.964817420444 12083.838683703865 -999901.75954114052
 5691.6313102624608 13460.585465869652 -999893.2032832026
 3802.9242566885478 15192.489935201378 -999877.35548749496
 1267.4938888287495 17272.505115268341 -999850.01576550689
 -1876.6202720849349 19486.624596829282 -999808.35651547578
 -5676.8742859541335 21810.811401611409 -999745.99854380265
 -8915.6055069996564 22926.739856214212 -999697.39250335621
 -0 -0 -0
 0 -0 0
 -0 0 -0
 -0 -0 -0
 0 -0 -0
 0 -0 -0
 0 0 -0
 0 -0 -0
 -0 0 -0
 0 0 -0
 -0 0 0
 -0 0 0
 -0 0 -0
 31076.347732709117 21394.398713898408 -999288.01669752179
 27888.331587828721 19529.852287883754 -999420.24485741765
 23981.18129515605 16819.684539575697 -999570.9085180891
 20633.288019782627 14181.791267198467 -999686.52297705121
 18065.85248828871 11960.378940139461 -999765.25960321282
 16143.538645790173 10125.456898660785 -999818.41415458301
 14716.650983016603 8649.8594585471492 -999854.28944181243
 13623.602169073647 7514.1202762261246 -999878.9604049148
 12756.472576903006 6682.8696313881701 -999896.30045364436
 12064.966195532887 6122.831519392088 -999908.4695735334
 11499.756390036284 5796.5636588734824 -999917.07428802259
 10996.347359653917 5679.4950932030379 -999923.40890701814
 10485.190180555726 5769.4438941434601 -999928.3845876311
 9903.5785222351242 6083.997221662813 -999932.4497736136
 9201.4111212048028 6648.7812400556595 -999935.56179455901
 8330.8261784874721 7481.7747009854529 -999937.30822612473
 7205.9791259981503 8596.1422199929439 -999937.08812293259
 5667.8178731936669 10043.32539047184 -999933.50151680433
 3556.132581638532 11875.932160437613 -999923.15512562403
 738.23222936431409 14118.133578018791 -999900.06166488887
 -2868.2284948027004 16801.850470446858 -999854.72499062098
 -6812.0382994515858 19535.680704286289 -999785.95374891476
 -9727.2486396618588 21236.321817092783 -999727.16241461772
 0 -0 -0
 -0 0 -0
 0 0 0
 0 0 -0
 0 -0 0
 -0 0 0
 -0 0 0
 0 -0 0
 -0 -0 -0
 -0 -0 -0
 0 0 0
 32179.477535341081 20135.324029482461 -999279.26524659758
 28960.947308302879 17844.504199116225 -999421.25112531683
 24918.857626575646 14754.215323898072 -999580.59388163523
 21280.418685490687 11920.420990309727 -999702.47941274219
 18418.874194492135 9582.4963291356908 -999784.4371850912
 16294.625686384543 7724.2761358159169 -999837.39714611508
 14747.837263898478 6255.9834395872149 -999871.67374980741
 13626.283760735832 5107.6070697125715 -999894.11276439321
 12802.480825262699 4231.5891256075056 -999909.09093686636
 12185.49806180493 3590.5919410894758 -999919.3073876003
 11716.100407503511 3154.4438676613272 -999926.3885282391
 11345.577586148571 2897.6982268678953 -999931.43825675489
 11024.700661112813 2804.5541945160189 -999935.29313206195
 10703.661690383884 2872.4070512374356 -999938.58856639301
 10334.466535543812 3110.6489098159695 -999941.75963642274
 9869.91110617099 3536.1312256495321 -999945.03880498908
 9254.8577723106573 4169.5345959345559 -999948.47996727703
 8409.4439358827804 5040.1538163791984 -999951.93789611536
 7218.2785219903035 6199.4397814474924 -999954.73067613191
 5545.2182053518554 7717.3423988431859 -999954.84557121561
 3245.9073546729155 9678.8791001053632 -999947.89033469674
 204.80720044559268 12174.039851647018 -999925.87265641894
 -3504.0619982239018 15156.016079162622 -999879.00104268629
 -7390.4706176616746 18216.759093342724 -999806.74664266221
 -10236.227300528242 20179.125279062057 -999743.97850330849
 0 -0 0
 0 0 0
 0 -0 -0
 0 -0 0
 0 -0 -0
 -0 -0 0
 0 -0 -0
 0 -0 0
 0 0 -0
 33559.138096702416 19315.841797857076 -999250.06004795746
 30123.031448126338 16863.634260374587 -999403.93275987625
 25875.933724550039 13559.899723675137 -999573.19150393724
 22017.706757861975 10523.893268939988 -999702.18978433218
 18912.270276949857 8055.7164266782056 -999788.69340767444
 16567.05498507847 6127.6910367327737 -999843.97987469996
 14858.954244911982 4637.4451852608254 -999878.84545123857
 13638.803257007647 3484.8226613991046 -999900.91461941134
 12776.480525455925 2596.5061103493745 -999915.00623873132
 12169.328944325183 1922.8888054809277 -999924.10208559665
 11741.835248432091 1429.3678606339936 -999930.04065910412
 11439.573137710113 1090.8785704614777 -999933.97089526441
 11219.012102089388 889.22207894317694 -999936.66952039907
 11040.446903212473 813.69928089802306 -999938.72133529128
 10865.298767736504 862.05476688799831 -999940.59930791217
 10654.898572651602 1040.062138225614 -999942.6940615921
 10367.821581017663 1360.3256022162282 -999945.32740041369
 9954.125499791131 1842.3440104566635 -999948.75926423422
 9347.2924860815656 2516.1263755355458 -999953.14751804329
 8458.6193146315654 3428.415650765432 -999958.34799526318
 7178.5073904725732 4645.4877336324234 -999963.44356949453
 5380.8862752977639 6254.2169357248149 -999965.96483751049
 2940.467841097684 8353.2585923879869 -999960.78759107552
 -214.73884586973389 11002.22167157532 -999939.45066964801
 -4010.7743721877059 14118.692408813204 -999892.28230524948
 -8016.8223366236389 17245.514334688836 -999819.14504321991
 -11060.052563105524 19184.037875581453 -999754.79390102916
 0 -0 0
 0 -0 0
 0 0 -0
 0 0 -0
 0 0 -0
 0 -0 0
 -0 0 -0
 35761.358758459261 18413.387780801615 -999190.70870889432
 31810.621966982955 16099.508958384149 -999364.2429771903
 27140.951641140535 12805.619385151846 -999549.59099395154
 22948.758713865631 9697.5780464963373 -999689.60755502735
 19567.705276369066 7135.8692257858356 -999783.06861069123
 16986.378251305814 5134.6760326131507 -999842.53663061548
 15085.877418250982 3600.5491174116523 -999879.71894052089
 13724.337474338094 2427.8423669752574 -999902.86935398448
 12770.58385959206 1529.0043292764301 -999917.28374583391
 12116.950014140288 840.80856325179241 -999926.23356091359
 11680.100800744409 320.15726750746398 -999931.73404218385
 11397.585694702562 -62.194350340673921 -999935.04347642243
 11222.452874994906 -326.29834597499178 -999936.97305423126
 11117.106296133599 -485.59754154855307 -999938.08515459008
 11048.503013296351 -547.64750594627151 -999938.81345979078
 10985.215563581169 -514.14367836762324 -999939.52851924975
 10895.28405512893 -381.01789742695968 -999940.57203951862
 10743.565833909437 -138.42161955509872 -999942.27665032132
 10487.864732966204 230.20530257939453 -999944.9743355189
 10074.225729076561 750.66524006999748 -999948.97193689668
 9432.8388841607557 1461.6306001361622 -999954.44155550131
 8475.7401177403226 2417.6241485385344 -999961.15770710446
 7096.056071052928 3690.4783667246302 -999968.0126672358
 5171.6880876582663 5365.0260255729227 -999972.2346835779
 2579.372878213931 7519.2703845723117 -999968.40320504073
 -772.83288822451163 10179.920084175636 -999947.88462019688
 -4855.3734291596211 13219.918770126777 -999900.82463041041
 -9277.0539959165326 16136.313041540798 -999826.76282973262
 -12863.606747356815 17712.31963881975 -999760.37196643348
 0 0 0
 0 0 0
 -0 0 0
 0 -0 0
 -0 0 -0
 39273.570619672173 16614.377595531016 -999090.3608322395
 34540.39197933182 15057.816116290089 -999289.85959816573
 29101.747302656455 12122.314717392144 -999502.9453632565
 24321.685830546074 9134.5190681823988 -999662.4511102502
 20512.295575440057 6581.4661959975274 -999767.93809010345
 17613.148660897732 4547.9952332379517 -999834.5326770863
 15470.286993442825 2977.7410488959285 -999875.8939381357
 13924.818408283456 1778.5854044040332 -999901.46317837515
 12837.395772408629 863.46400224004822 -999917.22442395159
 12093.782645238762 163.16618289360403 -999926.85422391107
 11604.267677931401 -372.46781157063697 -999932.59884823649
 11300.194598434844 -778.02978510588889 -999935.84807811084
 11129.523897800118 -1076.9083449340735 -999937.48502905166
 11052.235575554194 -1284.7524866112883 -999938.09683391417
 11036.00353535604 -1411.6256157946291 -999938.10505405185
 11052.716337038792 -1462.9977941576722 -999937.84661799215
 11075.915762172463 -1440.069258688824 -999937.62319984729
 11078.695522756678 -1339.7761533837481 -999937.73181402299
 11031.433722793901 -1154.4607263555642 -999938.48545320565
 10898.995660734008 -870.93476145269562 -999940.22489658277
 10637.415126747293 -468.75140378304491 -999943.31122896285
 10190.3840264669 82.075708809400396 -999948.07332029543
 9485.7085410659729 823.23073915106647 -999954.67078494316
 8431.5943638336867 1809.3005004909414 -999962.81663278991
 6913.2891067768724 3105.9917766348967 -999971.27921196306
 4791.810915064445 4781.5732491597873 -999977.08729021251
 1909.647764000553 6885.8385894511866 -999974.46891025046
 -1877.7230769479877 9400.9891101873309 -999954.04672404646
 -6592.7350291825014 12128.77977332776 -999904.70973290503
 -11828.54034957659 14452.205190198001 -999825.59449052846
 -16144.484517693576 15067.839544137643 -999756.12817883247
 0 0 0
 -0 -0 -0
 0 -0 -0
 0 0 -0
 37356.695917726734 13494.882345844166 -999210.87134827662
 31969.173260097705 11290.78605973664 -999425.07978898496
 26431.428395771723 8624.013233416581 -999613.42827550555
 21960.559185851569 6197.3996451323392 -999739.62914244994
 18578.089508233934 4198.7418284642235 -999818.59612495813
 16089.167293342185 2624.7040712082353 -999867.11598309188
 14292.677155261461 1410.4765191968379 -999896.85964889603
 13021.926799812776 480.6840081797061 -999915.09557827178
 12146.400792885695 -231.31402862667539 -999926.20299780054
 11565.883119365903 -777.78207647777742 -999932.81044413708
 11204.170629352308 -1196.8720118853096 -999936.51501377602
 11003.501857122516 -1515.2047435625971 -999938.31164800643
 10919.81085280164 -1750.8538270508313 -999938.84425089497
 10918.705444758491 -1915.8040184347274 -999938.55389537488
 10972.122357593713 -2017.6021671450203 -999937.76896988193
 11055.653786837227 -2060.2597325326269 -999936.76192506298
 11146.452247027286 -2044.6176668061094 -999935.78600873228
 11221.412856371333 -1968.34962692555 -999935.10064066295
 11255.30522417981 -1825.6315290571738 -999934.99047379603
 11218.571000541604 -1606.4117687939472 -999935.77949083038
 11074.655236044133 -1295.2460252201806 -999937.83524233976
 10776.752972479097 -869.82320285241144 -999941.55079332797
 10263.765064751122 -299.48911062469449 -999947.28132685472
 9455.0534192097457 455.73939898580267 -999955.19612952671
 8243.7156571506985 1444.7056969533871 -999964.97637547948
 6488.6575732414858 2721.4709498586662 -999975.24515298195
 4008.135886677469 4335.3902445239237 -999982.56946715922
 586.18200399330237 6307.6183873734599 -999979.93496916594
 -3968.3801047371689 8578.2552552730576 -999955.33175043366
 -9564.6796401968768 10892.757409448226 -999894.92684951611
 -14807.948891367396 12593.006260936625 -999811.05257090577
 -0 0 -0
 -0 -0 -0
 0 0 -0
 41574.444438106912 11765.817294355988 -999066.12949947338
 36090.220286984812 10501.69409062261 -999293.35553723364
 29638.625013967605 8159.0418313962618 -999527.37928666826
 24200.758535833105 5891.9964749431674 -999689.75570615381
 20081.912027724284 3971.8386716611667 -999790.44869756431
 17072.613813653712 2428.7374658559788 -999851.3024904714
 14911.545028300963 1220.9434227097281 -999888.07129699632
 13382.315851750171 287.5162648762352 -999910.411465368
 12321.41517878145 -430.89797198496217 -999923.9956391335
 11608.096207035343 -984.26004729475346 -999932.13936477073
 11153.269248311528 -1411.3038450192312 -999936.80440642417
 10890.741884219364 -1740.4221192114719 -999939.1794864618
 10770.755743028061 -1991.6030581684083 -999940.01036961353
 10755.202274495668 -2178.4968942443675 -999939.78807492007
 10814.023073527089 -2310.1379312282565 -999938.85821469291
 10922.442373198135 -2392.1600462091069 -999937.48695751873
 11058.830954590838 -2427.5175015787599 -999935.9026541136
 11202.988718576831 -2416.8105994609014 -999934.32387847244
 11334.633456873953 -2358.3039244442903 -999932.97999765875
 11431.834173698144 -2247.6772189548615 -999932.1282539852
 11469.176124373589 -2077.5033813754262 -999932.06868203229
 11415.42330860626 -1836.4615860819806 -999933.15552567213
 11230.437250781841 -1508.3450179126044 -999935.79902634921
 10860.956537533699 -1070.9992796162151 -999940.44451838895
 10234.715252845346 -495.4143818786817 -999947.50120607985
 9252.2908419341184 254.62943289807305 -999957.16422156233
 7776.4295529399596 1221.6637891939256 -999969.01686051977
 5620.2782426884396 2451.0680533895716 -999981.20219225751
 2542.2715326115404 3982.1654364574842 -999988.83954466775
 -1723.5267210917468 5827.2158074228473 -999981.53633533407
 -7302.1260690979952 7916.7879552455906 -999942.00002967298
 -13584.345817152391 9901.3128079387043 -999858.70479453215
 -18329.341065554891 10486.539519622327 -999777.00901001203
 -0 -0 0
 0 0 -0
 39905.213341522125 9242.3856062382056 -999160.72393608093
 33873.293680146038 7677.8680366913404 -999396.64313908422
 27475.910324419387 5646.3252834298301 -999606.51926777582
 22368.581803253961 3814.4119240903806 -999742.51525569544
 18604.415976330434 2316.3855300791506 -999824.23958626646
 15908.225333839417 1132.1197839592985 -999872.81524778076
 14004.756249599473 209.41703077763609 -999901.90666229674
 12680.08209534179 -505.24881242636559 -999919.47687886003
 11778.623915482642 -1058.3512349557245 -999930.06951052393
 11188.900652351165 -1487.2491191049539 -999936.29626704205
 10830.583115838792 -1820.445797448255 -999939.69040461117
 10644.910147151511 -2078.8059548118613 -999941.18049701361
 10587.974239019057 -2277.0876894749972 -999941.35311685572
 10626.059573098142 -2425.4157850635097 -999940.60034394986
 10732.345254017411 -2530.4961409413363 -999939.20482928806
 10884.527304726422 -2596.4917037582286 -999937.39068812958
 11063.03092731385 -2625.5696294699128 -999935.35577597318
 11249.592793661332 -2618.1646786905167 -999933.29371298151
 11425.982909069264 -2573.0117658962372 -999931.4109102753
 11572.675220626817 -2486.9751063289427 -999929.94161744067
 11667.236070515864 -2354.6875687586398 -999929.16301552497
 11682.209237981753 -2168.0062796033317 -999929.41037659848
 11582.173217948979 -1915.3068301268372 -999931.09005735768
 11319.561531716756 -1580.6520723898088 -999934.68239968352
 10828.653390390273 -1142.8936376242359 -999940.71527260228
 10017.085759337928 -574.80101272289392 -999949.66253141267
 8754.4306549588982 157.59082375462089 -999961.66681980353
 6858.7490012563449 1094.903563702924 -999975.87908325286
 4086.8750341029368 2281.8737448257448 -999989.04519233049
 149.88501663111782 3755.895550373592 -999992.93536659377
 -5176.9473929289597 5502.0605697395868 -999971.46286540467
 -11646.482030293764 7298.5471334683389 -999905.54087176581
 -17321.621142728389 8432.0175013118223 -999814.41403984837
 0 0 0
 -0 -0 0
 37899.122429264426 7174.8882594327843 -999255.81184076995
 31790.144671020211 5471.1625375745352 -999479.59112844453
 25669.335159333616 3713.6226293151831 -999663.59053405793
 20911.867610718422 2247.979165621482 -999778.79572568578
 17458.260839660677 1089.3628532333282 -999846.99950393825
 15014.600461092319 187.40150176126747 -999887.25697134028
 13310.456898794548 -512.03584031659011 -999911.28084267746
 12141.064816376786 -1054.7017701755665 -999925.73831725144
 11359.999029948543 -1476.8926609107591 -999934.38245222275
 10863.907371943465 -1806.4912555191768 -999939.35421402298
 10579.305828746157 -2064.333980245774 -999941.90671928541
 10452.942094553033 -2265.571052356725 -999942.79995876516
 10445.172498840377 -2420.9201962396796 -999942.51710629463
 10525.474872730903 -2537.7496876908813 -999941.3853847764
 10669.403579353466 -2620.9405254153867 -999939.64542767429
 10856.465511905659 -2673.5137854258251 -999937.49278673809
 11068.58585689155 -2697.0316186108562 -999935.10410805
 11288.891731612659 -2691.8026035013158 -999932.65529345302
 11500.623681533345 -2656.9178835888529 -999930.33579459693
 11685.963355069673 -2590.1410610452904 -999928.36214888329
 11824.593479332369 -2487.6586455277898 -999926.99260671623
 11891.732754732255 -2343.6943765709348 -999926.54419650219
 11855.352942462983 -2149.9806603044099 -999927.41146033688
 11672.137043422405 -1895.0742543611905 -999930.0825109774
 11281.639090182489 -1563.4836938414439 -999935.13796554727
 10597.983317471004 -1134.5559504338212 -999943.19615286042
 9498.6435124830896 -581.06504958988569 -999954.71804218751
 7810.8520123543831 132.42726330875016 -999969.48606138024
 5299.8824535494077 1050.6862417895527 -999985.40354567172
 1674.8723861626399 2225.0062485143235 -999996.12206732284
 -3335.8564083419706 3694.4930406834847 -999987.61131485796
 -9658.5014139905397 5414.5207520412387 -999938.69627865776
 -15621.172305784587 7006.1043328501719 -999853.43599843164
 -0 0 -0
 43688.787018801821 6683.6958842709346 -999022.83162005467
 37496.012659260145 5427.3108436235343 -999282.03893178387
 30318.385493344515 3665.5551736879506 -999533.57082508528
 24296.018498554738 2189.8185791985557 -999702.40980989335
 19801.557384004929 1046.7737587934466 -999803.38196560717
 16589.783144318004 170.6999266988571 -999862.36550675286
 14339.933032011078 -502.3298836564831 -999897.05169348558
 12786.140786013781 -1022.1922263402995 -999917.73147937143
 11732.670809213654 -1426.2136172291537 -999930.15273588011
 11041.272337865179 -1742.1009217456553 -999937.5257432533
 10615.220708555504 -1990.3203708324077 -999941.67615622969
 10386.249791921427 -2185.8400569987671 -999943.67237285199
 10305.148778788087 -2339.4331351564047 -999944.16392179276
 10335.337460790906 -2458.6937337563554 -999943.56621996174
 10448.582217605146 -2548.8352162388296 -999942.16361181752
 10622.13484509664 -2613.3033293078329 -999940.16865862603
 10836.802374981868 -2654.2174365878914 -999937.75748497713
 11075.572692604692 -2672.6592543211568 -999935.0921845081
 11322.555274014601 -2668.825070564812 -999932.33626821451
 11562.013331788197 -2642.0618877415318 -999929.66720499727
 11777.321220946857 -2590.7970752075726 -999927.2885942125
 11949.634662279877 -2512.3681354975452 -999925.44433962158
 12056.062791333698 -2402.7454213743854 -999924.43622726388
 12067.023777968905 -2256.1325498173901 -999924.64556238416
 11942.401844888996 -2064.4081126813107 -999926.5559316444
 11625.965872078259 -1816.3472299808545 -999930.76650350227
 11037.464554676277 -1496.522633414964 -999937.96547396481
 10061.907874248553 -1083.7500897896973 -999948.79043662676
 8536.4023613386798 -548.95907693913921 -999963.41357004503
 6237.7160993720245 147.40327335129899 -999980.53439561429
 2882.3571268721507 1057.4006393237648 -999995.28694953397
 -1823.5938777886095 2242.4573809220324 -999995.82293640787
 -7971.7207082453197 3742.0367058199217 -999961.22366331902
 -14788.95067268996 5381.5880261214188 -999876.15505537391
 -19845.493536312108 6069.2046901661361 -999784.63737983536
 42862.084864954595 4069.0998767583897 -999072.71212220727
 36254.542117815137 3164.6998763166143 -999337.57702316018
 29056.892581202028 1956.2930083331801 -999575.84500186366
 23249.302418830772 909.31910262478186 -999729.28489456954
 18978.815611925413 92.201353923513793 -999819.88180715765
 15951.937559143231 -532.53834632261294 -999872.6179324137
 13845.542550964803 -1011.1997687626676 -999903.63457010058
 12401.370435837531 -1380.9433887148878 -999922.1464727493
 11431.844096276125 -1669.171069012893 -999933.26117721514
 10805.373947623128 -1895.7172653937159 -999939.82326433109
 10430.322519313993 -2074.8963736878554 -999943.44998963887
 10242.259363691888 -2217.0004693639653 -999945.08900841442
 10194.84785497349 -2329.3590739508973 -999945.31808670354
 10253.653595119553 -2417.1044766115183 -999944.50855729985
 10392.027038411217 -2483.7406737480696 -999942.91677390202
 10588.398019684908 -2531.5640141073804 -999940.73674944323
 10824.466089652786 -2561.9654601756138 -999938.13171958551
 11083.950089232323 -2575.6287312940376 -999935.25399750657
 11351.620475853144 -2572.6405963491802 -999932.25882203353
 11612.431552285132 -2552.5212427640181 -999929.31553622754
 11850.554814353873 -2514.1837199364663 -999926.61892301601
 12048.147390117494 -2455.8206961932488 -999924.40268711036
 12183.615934170153 -2374.7129197565055 -999922.95715285861
 12229.111121864318 -2266.9388718028258 -999922.65192329779
 12146.854543646958 -2126.9519668709308 -999923.96210913255
 11883.825405086927 -1946.9681313967944 -999927.48937552306
 11364.212459163124 -1716.0854974913093 -999933.95268174994
 10479.158958000888 -1419.0542873555421 -999944.08519299852
 9073.9459783005732 -1034.6980669831205 -999958.2955825174
 6935.0797670488864 -534.36844780959882 -999975.80926689738
 3786.5313494133593 117.82544646830212 -999992.8241230055
 -676.46213143290788 956.50926801095864 -999999.31374426722
 -6636.466931073388 1975.6665886949977 -999976.02673674293
 -13684.276168280094 2999.507414531613 -999901.86695546308
 -19610.816393700985 3516.0547709414436 -999801.50691985851
 42026.23574605606 1648.552067081755 -999115.14741049695
 35278.770940966766 1155.6990579219707 -999376.84217745531
 28156.626144951428 466.77265114114846 -999603.41462373245
 22518.471600407032 -171.18333804831727 -999746.41241319128
 18409.468636430836 -686.84737385266783 -999830.29545278789
 15512.057089663349 -1086.7337171741563 -999879.09023775219
 13504.526419816253 -1394.9928586343901 -999907.8366335074
 12135.22383868589 -1634.2084425902076 -999925.03004232817
 11222.856792237613 -1821.7119833464455 -999935.36233642139
 10640.718369640483 -1970.0830672806715 -999941.44522831228
 10300.768664315388 -2088.3155363594256 -999944.76502612128
 10141.198883758119 -2182.8040085184966 -999946.1942784026
 10117.594813026844 -2258.0551961883898 -999946.26628730912
 10196.928520959003 -2317.1925486841105 -999945.32513904502
 10353.585509032306 -2362.3187045306458 -999943.60976879334
 10566.754347711687 -2394.7807572411493 -999941.30264114996
 10818.711862731316 -2415.3587486178644 -999938.55887036712
 11093.637078251848 -2424.3933968019851 -999935.52468798391
 11376.718248008865 -2421.8588976588248 -999932.35015244165
 11653.334601779794 -2407.3891533487104 -999929.19962871552
 11908.157224796219 -2380.2578869032773 -999926.26236333104
 12123.96941694393 -2339.3136072891866 -999923.76558286871
 12280.014677253677 -2282.8608143665388 -999921.99185037869
 12349.579339458649 -2208.4744375148412 -999921.30216872424
 12296.465551662593 -2112.7219872285227 -999922.16364112135
 12069.857989028627 -1990.7593734608472 -999925.17490322306
 11597.025461255163 -1835.7634583794368 -999931.06711061648
 10773.283531633724 -1638.1992072915662 -999940.62456993153
 9449.1359876403239 -1385.0729292933431 -999954.39666120138
 7416.2187009477802 -1059.810112788794 -999971.93785761017
 4399.0440690992018 -644.75234172153239 -999990.1163040041
 75.046129722898428 -131.49041289243945 -999999.98853917466
 -5808.2992664742242 450.61731113481778 -999983.03015784733
 -12999.355882025966 983.36423713954787 -999915.0212600216
 -19301.74637744702 1260.288952237509 -999812.90962786495
 41469.219090581981 -245.61369126594602 -999139.75175744656
 34690.165201145057 -474.25451095507538 -999398.00256002916
 27623.40892594499 -792.14469063094634 -999618.08696426603
 22083.890406168262 -1095.4450551761863 -999755.52100734063
 18069.878332426561 -1346.4056891387388 -999835.81986682769
 15248.935257485809 -1543.922509513289 -999882.53623953136
 13299.633789619589 -1697.9140212008385 -999910.11437480652
 11974.35419441755 -1818.7573252924253 -999926.65079165588
 11095.708481825533 -1914.6344119802122 -999936.60770488565
 10539.973121313515 -1991.4966590622298 -999942.46979896736
 10221.244970526159 -2053.5732969686374 -999945.65301718609
 10079.239985033537 -2103.8407776963568 -999946.98998262221
 10070.636054107043 -2144.3649492038226 -999946.99058921647
 10163.199878272017 -2176.5397952271965 -999945.98456254345
 10331.890344048084 -2201.2600771201287 -999944.20169127022
 10556.317943787841 -2219.0475393454185 -999941.81829718861
 10819.068625609272 -2230.1451360177571 -999938.98524197284
 11104.567887832996 -2234.5826580689263 -999935.84554828738
 11398.214085656493 -2232.2197259833374 -999932.54668040096
 11685.603573960459 -2222.7657143963138 -999929.25048809894
 11951.655044910671 -2205.7794100089268 -999926.1435120505
 12179.476930981631 -2180.6451180082577 -999923.4496342995
 12348.750749537459 -2146.5228390152706 -999921.44731205155
 12433.383858006297 -2102.2637202558408 -999920.49256582896
 12398.054421264786 -2046.2802009446514 -999921.04737519473
 12193.193844771065 -1976.3563746473005 -999923.70710936969
 11747.793907065197 -1889.3897589569979 -999929.20726652222
 10959.427100110086 -1781.0875532215503 -999938.35744248005
 9681.1310262217157 -1645.7463054762952 -999951.78244810924
 7706.2067719030119 -1476.5412296633292 -999969.21662778477
 4756.5666580749248 -1267.4278943320837 -999987.88427668461
 495.16586583455637 -1018.8827452106228 -999999.35834415245
 -5367.4474596235214 -749.89253443620305 -999985.31397663779
 -12629.616839072845 -511.6311593595297 -999920.11231500632
 -19064.661264899874 -375.78780233883077 -999818.18220833666
 41236.440302990915 -1864.7967104415582 -999147.676034112
 34463.399640339798 -1900.7992275120496 -999404.15300694376
 27426.403743831412 -1923.6295156633798 -999621.97456196765