# OOMMF OVF 2.0
#
# Segment count: 1
#
# Begin: Segment
# Begin: Header
#
# Title: Oxs_TimeDriver::Magnetization
# Desc: Oxs vector field output
# Desc:  MIF source file: /mnt/gpfs/work/plgrid/groups/plggspinsym/MF/switching-obrazki/p-ap/Anisotropy.mif
# Desc:  Iteration: 22500, State id: 157650
# Desc:  Stage: 0, Stage iteration: 22500
# Desc:  Stage simulation time: 3.31265e-09 s
# Desc:  Total simulation time: 3.31265e-09 s
# meshunit: m
# meshtype: rectangular
# xbase: 1.0000000000000001e-09
# ybase: 1.0000000000000001e-09
# zbase: 3.4999999999999998e-10
# xnodes: 35
# ynodes: 35
# znodes: 5
# xstepsize: 2.0000000000000001e-09
# ystepsize: 2.0000000000000001e-09
# zstepsize: 6.9999999999999996e-10
# xmin: 0
# ymin: 0
# zmin: 0
# xmax: 7.0000000000000005e-08
# ymax: 7.0000000000000005e-08
# zmax: 3.4999999999999999e-09
# valuedim: 3
# valuelabels: Magnetization_x Magnetization_y Magnetization_z
# valueunits: A/m A/m A/m
#
# End: Header
#
# Begin: Data Text
 -0 0 -0
 0 0 -0
 -0 -0 0
 -0 0 0
 0 0 0
 -0 0 -0
 0 0 0
 0 -0 0
 -0 0 0
 0 0 0
 0 0 0
 -0 -0 0
 0 0 0
 12340.94352777452 12109.644217485185 -999850.51764239767
 13317.249007467542 14172.617659593341 -999810.87600983249
 14638.226583758231 16414.856468295126 -999758.10814897041
 15614.121448246256 18421.367531715357 -999708.38369479578
 15990.170112113019 20160.247452103689 -999668.88462253124
 15647.181691196134 21676.882411420687 -999642.57536083576
 14507.617837177304 22996.107232325987 -999630.28569409088
 12647.971369830659 24050.355522067119 -999630.73643195361
 10832.448289562029 24607.3000122907 -999638.50408543134
 0 0 0
 -0 0 -0
 -0 0 -0
 -0 0 0
 0 -0 0
 -0 0 0
 -0 -0 0
 0 0 0
 0 -0 0
 0 -0 -0
 0 -0 0
 -0 -0 0
 0 0 -0
 -0 -0 -0
 -0 -0 -0
 -0 -0 -0
 -0 0 -0
 0 0 -0
 0 0 -0
 -0 -0 0
 0 0 0
 0 0 -0
 0 0 0
 9422.5839354164054 8436.4722767858711 -999920.01722512941
 11757.952393006304 9861.0546853554679 -999882.24814525864
 13857.325145297242 11315.023373786156 -999839.9595864669
 14124.981007571712 13006.414506150599 -999815.64205268864
 14700.865365658605 15216.495769248279 -999776.14635177469
 15592.493324688232 17251.690459455222 -999729.5901033493
 16307.233505725122 18916.604986690101 -999688.06944524811
 16560.187030654299 20275.452511081134 -999657.27438506705
 16201.840592679755 21454.862359054183 -999638.52929074503
 15153.374038749351 22602.629802424286 -999629.6796220371
 13494.232499965199 23894.59295528803 -999623.40614690387
 11822.089897750584 25490.689409078797 -999605.1535200784
 11084.939300206459 27278.647963173938 -999566.40574101545
 9569.4539811307695 28048.494162223684 -999560.75729579059
 7357.4220609501026 28124.223395351892 -999577.35888675763
 -0 0 -0
 0 -0 0
 -0 0 -0
 0 -0 -0
 -0 0 0
 -0 0 0
 -0 0 -0
 -0 0 0
 -0 0 -0
 -0 0 0
 0 -0 -0
 -0 0 -0
 -0 0 0
 -0 0 0
 -0 -0 0
 0 0 -0
 0 -0 -0
 -0 -0 0
 5567.6844127565946 7867.3344002839522 -999953.55189114343
 8061.8765494445897 8906.213928656769 -999927.84014645685
 10242.66000936536 10164.429954587858 -999895.88071940315
 12523.583982522257 11835.146797423231 -999851.53355111496
 14427.595989878271 13168.552980409537 -999809.19864059822
 15314.880316528044 14420.177396692883 -999778.73198260134
 15878.688735499411 15877.178333743173 -999747.8594386687
 16445.846215932597 17259.278880073831 -999715.78532840125
 16880.064533248151 18388.308291432844 -999688.41822816583
 16995.305901000229 19288.007360809141 -999669.51156338712
 16666.112695644661 20081.506134087918 -999659.42890516599
 15840.778146063785 20940.642347169978 -999655.22018634772
 14600.013924300607 22056.513802122314 -999650.11368593725
 13251.401338320644 23521.130243885862 -999635.51197154901
 12011.998615959683 25075.070259191609 -999613.40164122789
 10144.61961192556 26308.547518479096 -999602.39446511795
 7527.2404751321255 27506.691715110333 -999593.27856969892
 4974.2935899962486 28464.432377323072 -999582.42906361504
 2503.0874872942618 28549.019376583652 -999589.25966902357
 -0 0 -0
 -0 -0 -0
 0 0 -0
 -0 0 0
 -0 0 -0
 0 0 -0
 0 -0 -0
 -0 -0 -0
 -0 -0 0
 0 0 0
 0 0 0
 0 0 -0
 -0 0 0
 0 0 0
 -0 -0 -0
 4654.232361626674 8407.2425874596702 -999953.82713063259
 6304.9170704388125 9435.563444229605 -999935.60700838361
 8879.1025001678427 10963.116771369545 -999900.48085269413
 11256.318628399513 12350.211390999453 -999860.37403706205
 13300.035101414176 13642.14458681376 -999818.48400465841
 14904.887890655902 14637.990700161683 -999781.76295891136
 15890.440601142134 15449.293467671201 -999754.37644896109
 16485.98166058783 16250.562670336398 -999732.02990680665
 16909.429801004419 16991.110478631461 -999712.64538791729
 17176.08121861819 17591.255696050528 -999697.71929169062
 17211.473457205448 18061.052248411146 -999688.73334308993
 16944.034870080734 18488.37450983224 -999685.49038700468
 16345.163230175271 19003.373435709018 -999685.80435907037
 15457.067408338768 19734.710157967904 -999685.76076791005
 14381.23356888739 20729.769981058402 -999681.67771424609
 13102.2514421265 21891.82236267683 -999674.4865809012
 11301.846919400141 23147.749306116584 -999668.1699235359
 8848.9213927661294 24634.739784228135 -999657.35438996681
 5886.3251889308694 26220.204929537769 -999638.86080385197
 2427.0644446868082 27573.824491683823 -999616.82336837589
 -462.98423893526092 28221.108382324186 -999601.59798154957
 -0 -0 -0
 0 -0 0
 -0 0 -0
 -0 -0 -0
 0 -0 -0
 0 -0 -0
 0 0 -0
 0 -0 -0
 -0 0 -0
 0 0 -0
 -0 0 0
 -0 0 0
 -0 0 -0
 4476.6797554463019 9343.4744874017997 -999946.32797109208
 5593.4257228744164 10058.317450493572 -999933.76972614939
 7574.6915659700271 11510.149797195285 -999905.065743407
 9897.9588705262577 12984.16930516102 -999866.71199598024
 12034.775462113908 14166.738252615483 -999827.21892677969
 13807.001379279467 15063.949756776143 -999791.20026665449
 15164.765653351553 15679.328064390631 -999762.06597076275
 16082.305092319959 16095.861150703418 -999741.10784579383
 16661.065237670111 16418.561187981919 -999726.38244354771
 17023.982736136466 16671.658004957746 -999716.07961018884
 17219.107761302468 16845.466745110301 -999709.8241880209
 17234.369108952043 16958.958215016653 -999707.64239235339
 17041.234218698119 17072.756344454283 -999709.01632780465
 16624.264787262226 17273.168892944184 -999712.59442735789
 15991.852174434509 17642.723362286357 -999716.45728996221
 15153.35518033761 18224.388159410657 -999719.08429468027
 14045.740871606782 19016.392996815553 -999720.50792246836
 12496.365140858758 20043.564544755285 -999721.00927139004
 10358.191366060437 21395.510425165943 -999717.43007975572
 7543.4714488823174 23098.700196362381 -999704.72945152083
 4032.8500821467937 25113.857607840288 -999676.46279997425
 386.21393839556714 27153.589988937907 -999631.1986875491
 -2131.0066325643293 28298.981234300198 -999597.23212493584
 0 -0 -0
 -0 0 -0
 0 0 0
 0 0 -0
 0 -0 0
 -0 0 0
 -0 0 0
 0 -0 0
 -0 -0 -0
 -0 -0 -0
 0 0 0
 4416.5519829423674 11037.005670839255 -999929.33679055725
 5244.4135131975891 11275.492805975526 -999922.67670499673
 6798.9726098797582 12330.37475535199 -999900.86300084903
 8738.0246307638245 13613.642319100079 -999869.14927322348
 10741.492943440275 14751.871965501154 -999833.4874382132
 12554.675317617923 15585.775581460835 -999799.71180591639
 14056.307784260542 16116.410276115943 -999771.3146171408
 15212.310688843214 16388.354790401692 -999749.97245849925
 16031.354340184171 16474.402234437632 -999735.7599631201
 16572.587793050709 16450.220338329862 -999727.33261858043
 16909.64830011368 16359.386234754007 -999723.17882321228
 17088.636150460385 16223.86495339664 -999722.34381376661
 17122.488904992741 16070.961271712304 -999724.23426538054
 17006.314084725142 15945.358073739631 -999728.22848869872
 16732.004446882747 15904.410508060029 -999733.50936816179
 16291.650321705683 16004.287573520536 -999739.18844319542
 15663.159519045681 16286.93937234742 -999744.66792264616
 14781.308422925911 16784.51928328655 -999749.86513314187
 13527.80149479815 17547.794535276644 -999754.50661333115
 11767.956446042042 18659.867978748436 -999756.63265021658
 9374.892104609944 20207.396476144459 -999751.85547498881
 6280.0055057529044 22258.488773211728 -999732.52483270748
 2663.2346111772904 24739.664348696002 -999690.38016243803
 -873.59755297467223 27160.419419576308 -999630.70603311714
 -3254.465178194117 28502.660240946574 -999588.41870821663
 0 -0 0
 0 0 0
 0 -0 -0
 0 -0 0
 0 -0 -0
 -0 -0 0
 0 -0 -0
 0 -0 0
 0 0 -0
 4339.5480468885462 13368.226084931295 -999901.22454875067
 4912.5115695659943 13125.677242074851 -999901.78709062003
 6145.301198820951 13677.37310113853 -999887.57604954171
 7779.3141300582402 14569.340719270136 -999863.59898871789
 9554.0894407978521 15476.007587803155 -999834.59260224621
 11278.305732834935 16199.20025150022 -999805.17388689716
 12816.06171911305 16657.453912771332 -999779.11450037593
 14095.429438018953 16855.201701083315 -999758.58138081199
 15096.02011626198 16836.157425305904 -999744.29429719655
 15831.31864969175 16660.714043668555 -999735.86009373853
 16340.955358260235 16388.863753705369 -999732.15329049109
 16673.426411295892 16065.74972273915 -999731.90833220538
 16866.537182006072 15723.355017662998 -999734.1126672012
 16940.173315172411 15391.365646689297 -999738.03388266743
 16899.721793525889 15104.529044183882 -999743.09330230171
 16741.376863766578 14902.575361853365 -999748.78822046565
 16452.550266970957 14825.484961292283 -999754.72921380843
 16004.366174682611 14910.010158493098 -999760.74730928522
 15339.68183969344 15194.222383438377 -999766.88771294069
 14368.736342413104 15730.290373029809 -999773.02293105633
 12979.727482922463 16592.605888993916 -999778.08142821444
 11053.489393022362 17872.061140635757 -999779.18052079075
 8494.3783688699696 19658.857279122771 -999770.66113514523
 5300.0414619270978 21979.82966976293 -999744.36564963451
 1649.2590319545002 24666.728027995578 -999694.36953152751
 -1944.3462953100989 27173.193640152003 -999628.84965615044
 -4456.7174795519386 28467.509195134047 -999584.78309222613
 0 -0 0
 0 -0 0
 0 0 -0
 0 0 -0
 0 0 -0
 0 -0 0
 -0 0 -0
 4269.8602812516174 16083.122442416143 -999861.54114741343
 4524.3329615785369 15399.59522110075 -999871.18314224796
 5423.0657826483393 15433.624544781816 -999866.18784261704
 6792.3263789221282 15874.406225369599 -999850.92265264946
 8378.1652917831034 16444.242208043841 -999829.68211818277
 9992.2590537748092 16950.800126601767 -999806.39382535964
 11509.335178578427 17284.748879778715 -999784.36308031459
 12849.726054441853 17405.048172303093 -999765.94702882599
 13972.513668566069 17320.820632960076 -999752.34835152177
 14868.204519452434 17069.1537973907 -999743.75741137238
 15550.073805344909 16698.901247736241 -999739.63705645211
 16046.856034712231 16258.830250137784 -999739.04037518625
 16392.968648609443 15789.736127806787 -999740.94385090575
 16618.309030707238 15323.703506365564 -999744.47531147115
 16742.593845344556 14888.290787395899 -999748.98066902743
 16774.613936919217 14510.586515810684 -999753.99734446418
 16713.141664316521 14218.568283444341 -999759.22261896497
 16546.110604328165 14040.515705285301 -999764.51734525908
 16246.605832801652 14005.191119396628 -999769.92474299949
 15767.337821792446 14145.478386147106 -999775.62307711854
 15037.988397396839 14505.139823011479 -999781.7060857208
 13968.04462237555 15144.050426322501 -999787.75320870616
 12453.475247643726 16137.486935007308 -999792.22464954131
 10390.039374266322 17566.206651957524 -999791.71604172734
 7697.6218571085965 19486.14543497418 -999780.49428553658
 4356.7600602138873 21868.244165127744 -999751.3683606101
 491.96028450949717 24496.585481652924 -999699.79257516027
 -3430.2449481647632 26793.401929756543 -999635.10694284143
 -6377.9914948940977 27706.798755099677 -999595.7455527886
 0 0 0
 0 0 0
 -0 0 0
 0 -0 0
 -0 0 -0
 4791.0542028574009 18413.647233884163 -999818.97531261703
 4276.785075784348 17611.769555803887 -999835.75385286601
 4666.0010420110184 17261.307749778258 -999840.12506452412
 5712.0693599278457 17306.761370758377 -999833.91034435458
 7105.4882897214811 17546.838996984312 -999820.79418132652
 8621.1301435015084 17807.19511344951 -999804.27080366109
 10113.121345530019 17975.307163096339 -999787.28393045836
 11492.407538267407 17992.615143147454 -999772.06920841953
 12708.081648244024 17842.905016655339 -999760.03891003178
 13736.812392124519 17540.510221715766 -999751.78443775012
 14575.942857119311 17117.966966892152 -999747.22660117771
 15237.702605392007 16615.578635791389 -999745.83518307656
 15743.911374668942 16073.443801063444 -999746.85478825134
 16120.079127400873 15526.374693442622 -999749.50599527941
 16389.570364457722 15002.556735647795 -999753.12216299796
 16569.567841957385 14525.059402446592 -999757.20656111627
 16669.229900489256 14114.101257132523 -999761.43600372376
 16688.875295955702 13788.662942421577 -999765.64964776451
 16618.690772811675 13567.48739191684 -999769.84471570665
 16436.24144427387 13470.519926305657 -999774.17203091434
 16103.405637789423 13521.80802844822 -999778.89607378026
 15564.295150617538 13753.602807883437 -999784.27229391213
 14745.10598157714 14209.759597156635 -999790.31030600762
 13555.514391441357 14946.088609653592 -999796.41050808737
 11891.730081361546 16025.137963634326 -999800.87102828571
 9641.8804243561081 17501.069350669179 -999800.35342735599
 6696.8998357966993 19389.651065001533 -999789.57434260461
 2985.8633070707142 21613.070988114872 -999761.95155785664
 -1415.4182243234488 23890.601944829777 -999713.57684587035
 -6017.9504720817931 25545.101309946054 -999655.55671500158
 -9553.8084129594718 25450.156843346504 -999630.43884300441
 0 0 0
 -0 -0 -0
 0 -0 -0
 0 0 -0
 4925.7541001301433 18572.380304175775 -999815.38477680064
 4337.1517897379317 18465.907297399706 -999820.08350604586
 4755.8966535380423 18432.614510055013 -999818.79366680491
 5810.1533306838937 18499.980016067773 -999811.97875284462
 7163.7147591860894 18589.842765795485 -999801.52977318061
 8605.3599237801263 18621.643768245409 -999789.56894136022
 10009.165789822866 18542.999200728158 -999777.9622400332
 11303.434513123175 18331.556244141048 -999768.06631031958
 12450.718328625197 17989.610061729993 -999760.64812680439
 13435.922184966086 17537.243612089511 -999755.93075586681
 14259.086792954155 17005.124249731805 -999753.72177005792
 14930.46025584095 16427.965698101983 -999753.57128623
 15466.546887156068 15839.301586561147 -999754.92119450832
 15886.338074371235 15268.069200345441 -999757.22569305811
 16207.758361602309 14737.352270080262 -999760.03071585123
 16444.862838504559 14264.915946468214 -999763.01124779717
 16605.972226424459 13864.619552164766 -999765.97962277592
 16692.333387239843 13547.956034905776 -999768.88273908885
 16696.677211542625 13325.554414046946 -999771.79924703413
 16601.321295291542 13208.961395556271 -999774.93440779019
 16375.980654812693 13213.030414877116 -999778.59703278739
 15975.750376902943 13358.728651380485 -999783.13636943966
 15339.432975166312 13675.482952498334 -999788.81918233924
 14387.76792584141 14201.828202944838 -999795.62922119559
 13020.92841442811 14982.914089664582 -999802.96444279852
 11114.998330202901 16062.901648505527 -999809.20179939829
 8519.614818692613 17469.490019687128 -999811.09869904595
 5068.5278160573989 19184.61640063925 -999803.11087700562
 641.78110768709223 21087.581899272293 -999777.42623378476
 -4589.5187339979857 22852.913398481873 -999728.30342398107
 -9264.9319231109494 23858.655713975186 -999672.40913410333
 -0 0 -0
 -0 -0 -0
 0 0 -0
 8581.6353112507859 19361.980219479054 -999775.70947556267
 5940.5054883142957 18923.718533675201 -999803.28228677122
 4749.9447041611602 18864.27652552574 -999810.77064436348
 4916.5502551155078 18953.852398651266 -999808.27112643921
 5830.6720517208978 19030.902668066086 -999801.89438061381
 7081.70032362238 19030.524772007026 -999793.82306925068
 8438.4158454514036 18919.753782385647 -999785.39499976346
 9772.8837426395694 18685.329639307856 -999777.64988002391
 11016.079778033225 18330.52326685248 -999771.29279805149
 12133.513912439028 17871.768033808145 -999766.66165034845
 13111.447711053826 17334.652126273628 -999763.77198545332
 13948.895033629818 16749.625915617689 -999762.41095523664
 14652.750296230388 16147.931773449031 -999762.24233974563
 15234.494773398901 15558.238908950834 -999762.89757674607
 15707.579370418785 15004.386301537887 -999764.04233300779
 16085.14153606851 14504.457600789292 -999765.41695113236
 16378.065371096987 14071.056365205006 -999766.85499543708
 16593.392576534188 13712.364476554007 -999768.28834648628
 16732.918440038255 13433.570559033973 -999769.74780322006
 16791.718901024007 13238.475497182069 -999771.36433429597
 16756.438495991886 13131.297780551222 -999773.36971312074
 16603.328159138466 13118.728844658177 -999776.08915573696
 16296.064555897199 13212.089231901786 -999779.91527041502
 15783.160656281971 13429.154016554277 -999785.25177264807
 14994.390681698955 13795.031739609929 -999792.41112712375
 13835.390162045798 14341.402543576516 -999801.43336171866
 12179.836729775816 15103.299596812245 -999811.75324084132
 9860.5195713001212 16112.331839755543 -999821.56553880614
 6667.5357082124283 17384.177214227544 -999826.65215034364
 2383.7124535765074 18895.588311988988 -999818.62087944848
 -3041.1405361861016 20536.916509870622 -999784.47003567009
 -8892.7680044236695 21952.182617178518 -999719.47082947323
 -13052.515999255893 22006.787158950221 -999672.61298138485
 -0 -0 0
 0 0 -0
 8775.888105498585 18667.72899805666 -999787.22720487625
 6333.6135610951042 18665.658963664609 -999805.72038507101
 5105.6541802913325 18762.890932740396 -999810.92523498554
 5093.1652691091131 18914.826946744099 -999808.12608675903
 5830.8866782078567 18996.655760440302 -999802.5444208798
 6946.4413146993402 18952.565100149295 -999796.252858144
 8207.6194403491299 18770.04251329874 -999790.13822260278
 9480.4799983143075 18457.033842504763 -999784.70602462138
 10691.31179670058 18032.739508408944 -999780.23393038125
 11802.079483294934 17523.261253312747 -999776.79820793902
 12795.631812951597 16958.457872768748 -999774.31578986102
 13666.992682964483 16369.070983962327 -999772.60755940212
 14418.279716776955 15784.087334043243 -999771.46178366197
 15055.661382845177 15228.56958768573 -999770.68257107737
 15587.340127654765 14722.214452345774 -999770.11919208919
 16021.991536198151 14278.794017889157 -999769.67939051264
 16367.399172533198 13906.443825378527 -999769.33292858023
 16629.159725699323 13608.597847171484 -999769.11190106859
 16809.352271971493 13385.329451341942 -999769.11266135634
 16905.063905820876 13234.928842993873 -999769.50117157563
 16906.689016705634 13155.639310598068 -999770.52017991699
 16795.938564480122 13147.500133045647 -999772.49396449688
 16543.429906322617 13214.181908929835 -999775.82503449859
 16105.528001879266 13364.599635130586 -999780.97573637275
 15419.815336099189 13614.039486801279 -999788.42122913804
 14398.359037939888 13984.54757768343 -999798.53954987461
 12918.158389114458 14504.367582677423 -999811.35445886001
 10809.765020561721 15206.080377743559 -999825.94690263248
 7850.7668279291975 16122.122223440869 -999839.20839064207
 3788.4434350959918 17271.897039195534 -999843.65241221909
 -1533.5628031073966 18616.518738163228 -999825.52148622426
 -7752.6596218214354 19905.623504271553 -999771.80517440801
 -12931.687961406045 20456.482950564328 -999707.10898330726
 0 0 0
 -0 -0 0
 9785.6558307857667 17682.605748963721 -999795.76234043343
 7076.4150223704146 17900.316808007676 -999814.73434262001
 5586.8856472410671 18176.391506583386 -999819.18640350364
 5327.8129126943923 18401.487431846199 -999816.48299568612
 5857.0052564553489 18504.501571334047 -999811.62171232165
 6817.1407769183261 18455.483364091284 -999806.44213038823
 7974.25393706057 18255.878210577695 -999801.54740073706
 9186.8666999114939 17924.735845363371 -999797.13208486047
 10373.410016763521 17489.865047533913 -999793.22711510863
 11488.86477107795 16982.900322169717 -999789.7714434365
 12509.775684640777 16436.205167917869 -999786.655578078
 13425.159905445207 15880.544374150384 -999783.76331679523
 14231.235399765774 15343.190998798667 -999781.00523513183
 14928.459471555785 14846.473532224845 -999778.3370935095
 15519.819016176887 14406.876310026757 -999775.76342532563
 16009.68012163867 14034.778267002643 -999773.33188148146
 16402.788583561807 13734.820379430879 -999771.12542612851
 16703.204569603087 13506.795666571099 -999769.2580930501
 16913.059841806222 13346.91315569164 -999767.8772175078
 17031.079231374446 13249.30027976965 -999767.17208673689
 17050.824314857149 13207.644165097016 -999767.38670842443
 16958.588525417392 13216.893329798046 -999768.83328394196
 16730.772677588757 13274.931272472468 -999771.90270847396
 16330.382566680732 13384.122369037626 -999777.06708727637
 15702.059109558842 13552.644168700335 -999784.86244579451
 14764.887836716371 13795.594590772362 -999795.81898358441
 13402.436270921986 14135.944002490978 -999810.25689335784
 11450.746604723401 14605.361209205494 -999827.76708098256
 8689.3063824237888 15244.170739934561 -999846.04375525948
 4852.5430306650296 16096.432729009128 -999858.66885252134
 -284.1766638673617 17185.965586541832 -999852.27000316489
 -6570.148987279229 18438.319979756794 -999808.41239639954
 -12284.951830236927 19489.443397333394 -999734.58555488172
 -0 0 -0
 17256.756429585355 17261.426710691368 -999702.07937437121
 12064.429773639122 16993.85677404849 -999782.80559638562
 8191.0628255055726 17020.715856757139 -999821.58494479011
 6209.4546375980244 17283.969650803228 -999831.33930989238
 5634.9362467491119 17535.931288322794 -999830.35491394566
 5933.6684983196301 17665.968365619141 -999826.33749059495
 6728.2312980372108 17640.53209310141 -999821.75537996378
 7775.847909584415 17463.922843223823 -999817.25709662202
 8926.5279768398195 17159.026356161125 -999812.92495785793
 10090.019089950831 16757.044285894848 -999808.67818876484
 11213.026882231306 16291.80845485451 -999804.40337368415
 12264.432139667098 15796.422282239171 -999800.00837536156
 13226.167648680952 15301.064608952815 -999795.45203564607
 14087.904121329557 14831.445653621475 -999790.75769747526
 14844.143543039409 14407.755910056301 -999786.01109042845
 15492.677239659091 14044.097626831877 -999781.3462321629
 16033.66663468548 13748.418790723914 -999776.92637658061
 16468.865957234535 13522.93438141184 -999772.92756895511
 16800.710811641969 13364.970980987315 -999769.53027530352
 17031.142084420044 13268.137956741821 -999766.92119436583
 17160.115991649305 13223.72315106297 -999765.3042415391
 17183.776167657063 13222.222904025686 -999764.91769720346
 17092.225551421776 13254.927728187275 -999766.05399294256
 16866.730219856083 13315.497828384105 -999769.07880233659
 16476.020818958754 13401.47598019084 -999774.44515226816
 15871.160694090891 13515.734687916396 -999782.69197564537
 14978.327888660351 13667.9269626365 -999794.39759692806
 13689.023628235078 13876.117751047534 -999810.01394678222
 11848.238112243571 14168.793672671467 -999829.41772059142
 9244.3395567816879 14587.176491264254 -999850.86711377685
 5613.6374091994139 15186.559912722363 -999868.9191454323
 698.71953235241006 16031.637986230557 -999871.24089779367
 -5523.1466515379643 17164.19251012705 -999837.42945867998
 -12158.654390699854 18415.911622251049 -999756.48101051513
 -16831.959848566916 18753.735279792407 -999682.44084844855
 17570.391823830818 15667.62343022976 -999722.86505171284
 12813.441474133877 15694.988161978923 -999794.72046224808
 8944.2027981638639 15833.708068120761 -999834.63378956763
 6778.0233737963754 16126.933717462232 -999846.97849621833
 5970.752834322514 16411.179199697475 -999847.5000258123
 6061.0929717321296 16581.696647287416 -999844.14309845597
 6694.4325137305395 16602.554904475353 -999839.75703307742
 7631.2465644551903 16477.268938083173 -999835.11824911158
 8717.1412445290389 16228.889641804564 -999830.30289620499
 9854.5769377121869 15888.89295114913 -999825.19991954893
 10982.206200988225 15491.012242656754 -999819.69358812738
 12061.011715414485 15067.683388242778 -999813.73110880645
 13065.550760065144 14647.879630422947 -999807.34694523457
 13978.788140176241 14255.742500380577 -999800.66377648234
 14789.284143000885 13909.751575860062 -999793.87669941026
 15489.760448697209 13622.341070667639 -999787.22693630971
 16076.310157675456 13399.931321282851 -999780.97305974935
 16547.744998201288 13243.349075681164 -999775.36769052991
 16904.77646912686 13148.591891807919 -999770.64523009036
 17148.880892814068 13107.873824677807 -999767.02262473141
 17280.797246336351 13110.881078825027 -999764.71174165164
 17298.637867816029 13146.164928303439 -999763.93987560691
 17195.559466808059 13202.607428046875 -999764.97432732873
 16956.843824382166 13270.901703741123 -999768.1474299354
 16556.086092740552 13345.01560619544 -999773.87772023724
 15950.021351108839 13423.638574106972 -999782.67775868706
 15071.408023235999 13511.678270106047 -999795.12261789013
 13819.527102808352 13621.911991766592 -999811.71436643158
 12048.678029723545 13776.869124659383 -999832.49958923541
 9557.7056552618578 14010.626916131268 -999856.16595389566
 6091.0251826266012 14368.759040705525 -999878.21167172911
 1381.7216415354899 14899.473166990427 -999888.04200502951
 -4681.7658913788746 15610.500864155683 -999867.18784591998
 -11584.006557217159 16321.504213699191 -999799.68958401086
 -17148.005373300333 16489.107480286759 -999716.98757509398
 18467.500249996283 13462.98848597062 -999738.81557912065
 13624.357965766694 13872.635320923255 -999810.94555884576
 9671.8890444964018 14304.208222353376 -999850.91098095337
 7351.4226121912297 14737.101915767646 -999864.37800968834
 6345.3852001261603 15101.102863647331 -999865.83738967858
 6244.6054046038798 15337.632217291957 -999862.87156855047
 6722.3090113828566 15425.120658019841 -999858.42808581714
 7547.5112932595075 15370.62973245305 -999853.37865854392
 8564.4815259794195 15197.45147566597 -999847.8319848656
 9669.9955124415737 14936.204787317769 -999841.68795531883
 10795.443450726281 14619.30810818487 -999834.85347888328
 11894.301096456007 14277.648012353766 -999827.32227553276
 12933.996108508112 13938.561472511827 -999819.19777964952
 13891.023632660692 13624.616584139894 -999810.68672292749
 14748.266935955749 13352.924258958625 -999802.07443079492
 15493.643045785238 13134.85228362676 -999793.69005843252
 16119.377223169859 12976.08264400707 -999785.87055286637
 16621.409649787947 12876.977837456672 -999778.93165590742
 16998.621744594093 12833.224794169088 -999773.15187004616
 17251.724665275458 12836.719390721886 -999768.77158238809
 17381.750036531976 12876.645825134217 -999766.00600238529
 17388.122618686484 12940.702726801108 -999765.06810586958
 17266.265594358589 13016.421543794875 -999766.19708940922
 17004.600481602625 13092.532052047171 -999769.68806166912
 16580.666331505385 13160.332581285329 -999775.91846891027
 15955.923042195307 13215.053295820495 -999785.36240848212
 15068.692225468645 13257.208507811989 -999798.57018161134
 13824.758801315873 13293.933474588752 -999816.05677087361
 12085.776498816578 13340.130600060284 -999837.97433483892
 9657.6530999741426 13418.707567925911 -999863.32467183098
 6286.8359543590941 13557.540012557532 -999888.3281659463
 1687.8578546366907 13776.71870734571 -999903.67193921306
 -4332.0953631079119 14052.550322744262 -999891.87354393071
 -11455.001940385429 14252.760101222833 -999832.80690325564
 -17529.579959574414 14162.860498904663 -999746.03135442815
 19864.064901474798 11270.535920310314 -999739.16295484744
 14786.295937696321 11912.971357419079 -999819.70703016256
 10579.473884310139 12597.302835929155 -999864.68219134095
 8022.0087552789701 13202.825819900574 -999880.65926184389
 6792.9841370449349 13681.354248750738 -999883.33115040674
 6495.9761605255435 14007.666639656311 -999880.78667860886
 6815.7872790950605 14178.22091241168 -999876.25389121275
 7525.4330199971191 14206.977103612313 -999870.7564777754
 8467.2230007629714 14118.721251174227 -999864.47473889531
 9532.6792193855345 13943.270669540858 -999857.346439949
 10646.540435184932 13711.369654207112 -999849.31340625917
 11755.351004560102 13452.006245571944 -999840.41489166114
 12819.931471813348 13190.724724662865 -999830.81275698636
 13810.793235448044 12948.606264008522 -999820.7817334201
 14705.591288932461 12741.706798883877 -999810.67932518804
 15487.818200237689 12580.829980481652 -999800.90528284595
 16146.096077833921 12471.569255396571 -999791.86010976974
 16673.592313959562 12414.585259764908 -999783.91134893533
 17067.257584187882 12406.099926237297 -999777.37392040202
 17326.72377525477 12438.590001161207 -999772.50718450896
 17452.798091661654 12501.661527428801 -999769.52759014675
 17445.524377123118 12583.074518013698 -999768.63319214061
 17301.760127932135 12669.88506681014 -999770.03511251009
 17012.133774101298 12749.656789561588 -999773.99123812001
 16557.115565376458 12811.702364749226 -999780.83708714473
 15901.780663601283 12848.302938826904 -999791.00540228852
 14988.706123337766 12855.863087328798 -999805.01372669067
 13728.446611112855 12835.895580056243 -999823.36916992662
 11987.435441699568 12795.588975478411 -999846.27533151384
 9574.7068027451623 12747.246741411385 -999872.90826892329
 6233.5556499223749 12704.920405427711 -999899.85887660319
 1658.51293173931 12674.989018243681 -999918.29365615791
 -4395.9587961939915 12637.688721903984 -999910.47817793675
 -11686.824446622042 12529.953702585479 -999853.19842193066
 -18019.045770809076 12294.521032529286 -999762.05106119625
 21605.874821262656 9182.1905011137551 -999724.39879739319
 16255.332525561033 9962.8360098403391 -999818.23651257972
 11701.042389431137 10840.085966194229 -999872.78097928339
 8830.4111959595048 11612.483181061214 -999893.58137377806
 7337.4842720544038 12220.033869852232 -999898.41088821448
 6825.3381453051325 12651.419450316303 -999896.67283429566