# OOMMF OVF 2.0
#
# Segment count: 1
#
# Begin: Segment
# Begin: Header
#
# Title: Oxs_TimeDriver::Magnetization
# Desc: Oxs vector field output
# Desc:  MIF source file: /mnt/gpfs/work/plgrid/groups/plggspinsym/MF/switching-obrazki/p-ap/Anisotropy.mif
# Desc:  Iteration: 30400, State id: 212950
# Desc:  Stage: 0, Stage iteration: 30400
# Desc:  Stage simulation time: 4.47611e-09 s
# Desc:  Total simulation time: 4.47611e-09 s
# meshunit: m
# meshtype: rectangular
# xbase: 1.0000000000000001e-09
# ybase: 1.0000000000000001e-09
# zbase: 3.4999999999999998e-10
# xnodes: 35
# ynodes: 35
# znodes: 5
# xstepsize: 2.0000000000000001e-09
# ystepsize: 2.0000000000000001e-09
# zstepsize: 6.9999999999999996e-10
# xmin: 0
# ymin: 0
# zmin: 0
# xmax: 7.0000000000000005e-08
# ymax: 7.0000000000000005e-08
# zmax: 3.4999999999999999e-09
# valuedim: 3
# valuelabels: Magnetization_x Magnetization_y Magnetization_z
# valueunits: A/m A/m A/m
#
# End: Header
#
# Begin: Data Text
 -0 0 -0
 0 0 -0
 -0 -0 0
 -0 0 0
 0 0 0
 -0 0 -0
 0 0 0
 0 -0 0
 -0 0 0
 0 0 0
 0 0 0
 -0 -0 0
 0 0 0
 17215.84600166354 32316.158413395588 -999329.4154340938
 15335.8964677206 32326.929176406691 -999359.6849631042
 13873.680419904022 32221.053665224383 -999384.47290935484
 13022.551038267533 32131.424616168879 -999398.81164457614
 12455.666734673974 32112.582672359396 -999406.64316398569
 11805.954800540929 32179.406390388867 -999412.3799691546
 10709.194680473796 32322.648832155875 -999420.11162562133
 8871.9228225663337 32482.438837728485 -999432.9292916978
 6631.7002430969615 32499.119776580021 -999449.7625021647
 0 0 0
 -0 0 -0
 -0 0 -0
 -0 0 0
 0 -0 0
 -0 0 0
 -0 -0 0
 0 0 0
 0 -0 0
 0 -0 -0
 0 -0 0
 -0 -0 0
 0 0 -0
 -0 -0 -0
 -0 -0 -0
 -0 -0 -0
 -0 0 -0
 0 0 -0
 0 0 -0
 -0 -0 0
 0 0 0
 0 0 -0
 0 0 0
 20011.410565005259 31566.263036917604 -999301.31316089188
 18635.962277613995 30690.169581611175 -999355.19931655901
 17952.263677004976 29070.164593923229 -999416.15043952223
 16888.875785057327 28252.834972352426 -999458.12478099449
 15178.941482710834 27398.945206079981 -999509.3283892147
 13911.867493892278 26943.823548443506 -999540.13942183554
 13179.696548251262 26755.666267779063 -999555.11599984474
 12702.359581973018 26750.226556443358 -999561.44155335892
 12158.140191254577 26913.517375839303 -999563.82598088763
 11237.347857866778 27289.945006457365 -999564.3955817282
 9723.8067790801651 27994.257489785115 -999560.78811111755
 7910.4622287059574 29155.188728315148 -999543.59562629613
 7171.3704214120071 30212.138045840376 -999517.78281378187
 6249.8319838732632 31564.10111783689 -999482.18949653953
 4403.9841544833444 32143.831617005821 -999473.55093196162
 -0 0 -0
 0 -0 0
 -0 0 -0
 0 -0 -0
 -0 0 0
 -0 0 0
 -0 0 -0
 -0 0 0
 -0 0 -0
 -0 0 0
 0 -0 -0
 -0 0 -0
 -0 0 0
 -0 0 0
 -0 -0 0
 0 0 -0
 0 -0 -0
 -0 -0 0
 23652.076414569448 30100.059879686993 -999267.0142041709
 21756.957496595238 28835.093145639064 -999347.37314097816
 19647.773276416588 27634.624784722222 -999424.9809356808
 17742.766550630731 25851.783160604624 -999508.31889611948
 16587.746591886771 23956.610041976623 -999575.37359535822
 15578.568896921304 22344.181157971569 -999628.95404220023
 14487.193393403797 21171.135342509831 -999670.89797387377
 13680.839593021576 20532.381770820761 -999695.58162815112
 13220.928572733279 20274.910354149917 -999707.02461161371
 12941.089684696139 20283.357010833148 -999710.51491226396
 12617.268609721446 20530.326422740367 -999709.61295258417
 12039.824076329958 21070.927640990758 -999705.48595301784
 11095.042285828429 22034.408141682899 -999695.64613162226
 9935.9324126386982 23531.713474302866 -999673.71462295379
 8931.6064096550472 25338.606925808905 -999639.02555172506
 7552.0231993532434 27227.103107900388 -999600.74619917548
 5336.0931415733367 29005.90540592742 -999564.99716705107
 3150.3528020131989 30187.677142391811 -999539.28358317656
 875.92526816083853 31013.688435277087 -999518.57605777611
 -0 0 -0
 -0 -0 -0
 0 0 -0
 -0 0 0
 -0 0 -0
 0 0 -0
 0 -0 -0
 -0 -0 -0
 -0 -0 0
 0 0 0
 0 0 0
 0 0 -0
 -0 0 0
 0 0 0
 -0 -0 -0
 26102.464034995563 27276.173861130683 -999287.081729169
 23230.928714227408 26371.637193596478 -999382.23953740729
 20272.178863905636 24270.860947612542 -999499.8569649579
 17925.971382517768 22104.187957576643 -999594.9501796863
 16175.517359583457 20079.502052074033 -999667.52784887957
 15060.647519401822 18314.046977232814 -999718.84676623554
 14296.996560839476 16875.024701145809 -999755.38479703863
 13708.348335139764 15844.42794615771 -999780.49355295056
 13342.178337604068 15246.831217805879 -999794.73914150149
 13193.230147304817 15001.442212593129 -999800.42779037787
 13159.488888890417 15031.685388727288 -999800.4182268366
 13098.725330270536 15314.657529792217 -999796.92170933739
 12878.114792414761 15885.986439499393 -999790.87293005292
 12422.143492592861 16820.787996889532 -999781.35181759251
 11751.429674158002 18167.122079621608 -999765.90238713252
 10886.797465584263 19846.99375427538 -999743.75440902926
 9564.7163176225422 21772.940055222869 -999717.18765014468
 7541.8351557017104 23930.543524120916 -999685.17534728104
 4917.5170394109728 26153.736426044663 -999645.83733296441
 1601.4382010165609 28181.519795521646 -999601.53928338003
 -1418.7788278878545 29068.932721676785 -999576.40239106282
 -0 -0 -0
 0 -0 0
 -0 0 -0
 -0 -0 -0
 0 -0 -0
 0 -0 -0
 0 0 -0
 0 -0 -0
 -0 0 -0
 0 0 -0
 -0 0 0
 -0 0 0
 -0 0 -0
 27583.206448628825 25832.610948632493 -999285.66633049888
 24777.637754554871 24196.816572219843 -999400.11143439182
 21208.328869236364 21725.771558181306 -999538.99255445553
 18204.99979128885 19266.76251523165 -999648.62318955897
 16049.955330765648 17124.694651923604 -999724.5339427049
 14612.297645736951 15328.406747057126 -999775.73520470539
 13750.717834144598 13869.489816192605 -999809.25931463751
 13276.817943746968 12735.929255223356 -999830.7467823216
 13052.612287251473 11936.184570655834 -999843.56616941525
 13026.856497306049 11463.82803176553 -999849.42949258955
 13153.703851032786 11276.95253700242 -999849.89394232456
 13356.973179066214 11333.299951742418 -999846.5620182415
 13542.00107925685 11617.512860089317 -999840.81113030924
 13618.368203605622 12146.597519683439 -999833.48624466767
 13519.491146608027 12956.837376164578 -999824.6564894988
 13203.227763983534 14072.823549397393 -999813.79787136358
 12601.05250024134 15482.951868563134 -999800.72598359408
 11545.740963031598 17181.660625697994 -999785.72024397191
 9851.3897072335403 19197.819850719832 -999767.16981195949
 7386.3130321007902 21533.012228532931 -999740.8523033146
 4038.9856218506493 24148.938291475079 -999700.21275107318
 240.21934391910128 26719.415815379129 -999642.943812015
 -2590.0743194672109 28295.093359794864 -999596.25809962908
 0 -0 -0
 -0 0 -0
 0 0 0
 0 0 -0
 0 -0 0
 -0 0 0
 -0 0 0
 0 -0 0
 -0 -0 -0
 -0 -0 -0
 0 0 0
 28728.912883059431 25396.194260004657 -999264.57101293525
 25921.581031504484 23302.540971786122 -999392.34698945214
 22196.281785100367 20357.484043972006 -999546.34605820861
 18783.782729366041 17576.009825972324 -999669.0719357949
 16176.278925826036 15257.98720397027 -999752.73034215684
 14398.72573633412 13401.507689606808 -999806.51942704164
 13300.88225735941 11933.067907068809 -999840.33146372996
 12721.921660263475 10791.704085874147 -999860.83623281948
 12512.365166308085 9937.3333913054503 -999872.33691257553
 12557.50215447245 9349.174793334676 -999877.44352511747
 12783.490622928697 9009.0502756158257 -999877.70221193822
 13130.413173810897 8891.204487007235 -999874.26146123779
 13533.352035168717 8971.9225626674506 -999868.16780424688
 13921.650823828008 9241.0384305186726 -999860.38567745278
 14226.125650656777 9705.2073680921403 -999851.70215333137
 14384.418191871584 10382.014801706197 -999842.63875968941
 14335.339027317539 11288.742725191822 -999833.51731308573
 13996.027702364823 12438.296818764593 -999824.68462266074
 13239.652361768447 13855.888459715512 -999816.34611579101
 11912.473268094445 15592.466378925696 -999807.46545165358
 9856.2753034601501 17715.785981058649 -999794.4812631323
 6942.0591212493155 20296.800318151221 -999769.89738239383
 3264.5300335416232 23297.319515652736 -999723.25057840149
 -600.26724732543028 26303.803149790296 -999653.81488747813
 -3388.0910289248873 28219.103088875239 -999596.01993007108
 0 -0 0
 0 0 0
 0 -0 -0
 0 -0 0
 0 -0 -0
 -0 -0 0
 0 -0 -0
 0 -0 0
 0 0 -0
 30065.329301078156 25308.925526809191 -999227.46872906596
 27067.75325750055 23072.373889870956 -999367.30099432264
 23151.882724646926 19898.122992989811 -999533.91889803321
 19493.04117670282 16865.261619192734 -999667.73694873217
 16556.839274379705 14354.596059994901 -999759.87949366949
 14438.938164098776 12389.228786525333 -999818.99565609812
 13059.577324187847 10879.982093989755 -999855.52627854596
 12277.061827576259 9729.5314060783676 -999877.29745779315
 11950.922782738302 8865.3913557490323 -999889.28401136014
 11959.313678021785 8240.2007095015742 -999894.53139249538
 12205.360740647835 7824.837851878201 -999894.89501736267
 12615.675709703457 7598.5083674198331 -999891.54781755095
 13129.29753774339 7542.5847409701537 -999885.35890950554
 13688.066408373285 7642.1493064618753 -999877.10964496911
 14233.524316793184 7889.975338923754 -999867.56876832189
 14707.687773554084 8288.1186936622125 -999857.48534922465
 15052.987384712002 8846.085922737595 -999847.56554919062
 15207.284837980627 9577.8922220988734 -999838.48819118703
 15093.184852812894 10503.130994894576 -999830.92571209394
 14608.690585403649 11655.235746360773 -999825.35556919966
 13629.0882602769 13089.954367585557 -999821.43458111957
 12015.445589164656 14887.420935027516 -999816.98013446294
 9637.947495922419 17144.040777363381 -999806.5772107573
 6447.0073057400532 19921.988602015368 -999780.75119845197
 2583.199467706303 23123.738842827057 -999729.27324473148
 -1433.2475816802068 26257.05798115363 -999654.19656376354
 -4406.8834510167189 28180.889348361474 -999593.12565352535
 0 -0 0
 0 -0 0
 0 0 -0
 0 0 -0
 0 0 -0
 0 -0 0
 -0 0 -0
 32122.103247271909 24951.369784988285 -999172.45740103582
 28670.169540828276 22913.843159703818 -999326.2616233764
 24375.743230961092 19792.236897773437 -999506.92368813569
 20396.258748342352 16709.696363042913 -999652.32890066609
 17156.699808590809 14105.449482814876 -999753.3115456861
 14732.432685878315 12055.109362358402 -999818.79846571083
 13062.123475195096 10494.34510618875 -999859.61497157719
 12031.713124229613 9324.2208469822672 -999884.14168087149
 11515.006224326613 8455.682547560149 -999897.947824831
 11395.523032373309 7822.8868106778764 -999904.4676851714
 11573.67546115764 7381.5738256384893 -999905.77676307911
 11967.665259713138 7103.0722119415877 -999903.15598731022
 12510.767503597204 6967.8212120747912 -999897.45982476999
 13145.729408807932 6961.1310326169441 -999889.36010593537
 13819.575571779807 7072.4013320212471 -999879.49297423556
 14480.791487793987 7296.1002756444359 -999868.5281569045
 15078.139708864121 7632.4868372230803 -999857.18722605554
 15559.128003821435 8087.4659938185414 -999846.24139392516
 15866.437017719642 8672.5919948578739 -999836.5077973766
 15932.300501461636 9407.1305310104599 -999828.81919651793
 15673.364587562473 10322.989983463089 -999823.87525018945
 14989.061196286859 11470.250552713142 -999821.86483228684
 13763.760515923192 12920.148811485822 -999821.7984476781
 11876.120647872369 14761.046897768487 -999820.51851961866
 9223.1778335079598 17075.459790674751 -999811.66309639974
 5761.989331163536 19883.912044156383 -999785.69179638079
 1598.8087984399433 23031.842264644147 -999733.4535026435
 -2794.5741047923011 25974.800163629243 -999658.69181037601
 -6242.9702728077891 27540.273053920217 -999601.1998203526
 0 0 0
 0 0 0
 -0 0 0
 0 -0 0
 -0 0 -0
 35445.03019977489 23346.310707225588 -999098.89380906546
 31271.374349541082 22191.638435183471 -999264.54571842612
 26285.371374779774 19542.149837448942 -999463.44787161704
 21761.95710329296 16672.675762888201 -999624.14892095339
 18098.369824223912 14143.68722564694 -999736.16775695805
 15321.955741543703 12104.205721762106 -999809.34476334008
 13341.165688279882 10535.255469332866 -999855.50040507037
 12035.509206193785 9360.6451699208355 -999883.7556637025
 11284.199470307391 8496.2055830617592 -999900.23569004354
 10976.400034302929 7870.2330092949842 -999908.78487723402
 11015.412681248679 7429.1467803364412 -999911.73033502197
 11319.034964283341 7135.8074454990401 -999910.47584250162
 11817.935568213083 6965.3270288373824 -999905.90588229173
 12452.931490754963 6900.80126137346 -999898.64658336109
 13171.621663685042 6930.3293666990794 -999889.23332418071
 13925.368723883703 7045.786955644322 -999878.21308001271
 14667.243222453055 7242.7847249338092 -999866.1980713628
 15350.635165752559 7520.9932976080199 -999853.88565521163
 15927.687864654315 7884.531108908488 -999842.05899155827
 16346.841487281807 8342.7731917125857 -999831.57527098618
 16549.461269273339 8912.2518949959267 -999823.3279424205
 16466.378626686706 9619.8207916568463 -999818.14217529539
 16015.300462493426 10506.166259436824 -999816.54848358291
 15099.447138601374 11627.97705445561 -999818.38193030318
 13608.312313951148 13056.013706148207 -999822.16135774413
 11422.22445383784 14863.989897367857 -999824.28185799601
 8423.486794150178 17101.256502096072 -999818.27943695744
 4529.5464359865409 19735.887225886028 -999794.96796317759
 -205.48512540934675 22536.353542793011 -999746.00301519455
 -5325.3742655579854 24840.120784569106 -999677.25231113471
 -9501.4915718243064 25356.65032202665 -999633.31374177244
 0 0 0
 -0 -0 -0
 0 -0 -0
 0 0 -0
 34264.290154958166 20605.653569068036 -999200.36302093521
 29234.418943533168 18818.994608096702 -999395.41433357331
 23956.142968818662 16434.594555667605 -999577.91457987297
 19633.607158301696 14164.120219604567 -999706.90663231793
 16352.872730020219 12259.220663108908 -999791.12571687158
 13977.194602071173 10760.993574996275 -999844.40741964197
 12346.404927609265 9628.2415180189473 -999877.42411289306
 11319.237626382708 8795.0174567952636 -999897.2559855798
 10777.812854688837 8195.9300598826576 -999908.32853843295
 10624.297661071223 7776.3277027351269 -999913.32275686192
 10777.006622071322 7494.7962060065884 -999913.83836713561
 11166.921389740224 7321.8316994058059 -999910.84134898812
 11734.671204379376 7237.0911625238814 -999904.95648498053
 12427.876089389039 7226.6174702772514 -999896.65660799411
 13198.812196088029 7280.7810629180403 -999886.38433760358
 14002.534288906201 7393.1946503671206 -999874.62699397944
 14795.520873209265 7560.4065880960825 -999861.95687920495
 15534.61120043391 7782.0553986969799 -999849.04634080804
 16175.821156320131 8061.3229608418669 -999836.66560195712
 16672.668703679014 8405.7934587853269 -999825.66718134703
 16973.908984414291 8828.9139021136907 -999816.95159318927
 17020.834251401593 9352.0521668129568 -999811.39737535268
 16744.301260598768 10006.689388565052 -999809.72916989296
 16061.387374111422 10835.83284274737 -999812.29066371382
 14871.51433164483 11893.131207593167 -999818.67930718453
 13052.049267961067 13237.252479869065 -999827.19464750052
 10454.875535092418 14917.787136964738 -999834.06383483578
 6913.0022236887589 16945.414995947442 -999832.51763026312
 2291.1155026801193 19230.482227975765 -999812.45208440605
 -3293.0910103545721 21462.033439835624 -999764.2405448521
 -8548.5541832977178 22936.526724511652 -999700.37409375352
 -0 0 -0
 -0 -0 -0
 0 0 -0
 38728.647049794505 18890.009207725223 -999071.1983886956
 33624.956867262888 17980.783218468972 -999272.76241801248
 27431.827797446724 16002.503821933078 -999495.58012785646
 22115.295314675182 14027.33827861974 -999657.01492760098
 18063.74082560094 12331.649977452902 -999760.7872267341
 15120.230814080838 10974.974648326948 -999825.4490417802
 13059.656588592228 9939.498880204892 -999865.31679611641
 11690.790448288772 9177.6265508739943 -999889.54219433002
 10866.355797066457 8635.0856386818068 -999903.6741645186
 10474.115230305573 8261.9722401966701 -999911.01240302599
 10426.657862640981 8017.1957424965431 -999913.50094807788
 10653.513247160876 7869.2869074730061 -999912.28464253817
 11095.598061951454 7795.316878609271 -999908.05614236847
 11701.377990860368 7779.09338948188 -999901.27685644676
 12424.214223437322 7809.3585226351133 -999892.32061277237
 13220.522141089477 7878.4052679964043 -999881.56724921684
 14048.530463750776 7981.254137302265 -999869.46066684369
 14867.451790318901 8115.3446801166992 -999856.53973856953
 15636.83079104852 8280.6047394579618 -999843.44829976303
 16315.78114396164 8479.8229900095575 -999830.92965146876
 16861.862100449827 8719.3281595722401 -999819.80922711827
 17229.419095217087 9010.0220883607035 -999810.96544277226
 17367.275567178647 9368.7100060003104 -999805.28354885022
 17215.576692947812 9819.4888270009687 -999803.58148903702
 16701.389685935217 10394.713908394036 -999806.48802921909
 15732.45102205709 11134.798062809416 -999814.23587431444
 14188.468895430635 12085.726352626878 -999826.2961979612
 11910.452933666886 13292.650373653321 -999840.71059192158
 8693.5823798681649 14786.777396621947 -999852.87559701852
 4307.1411590112921 16560.395417877258 -999853.59020140546
 -1369.020750382607 18516.975197949661 -999827.60884649702
 -7788.8936819312366 20314.916860939789 -999763.29062840901
 -12797.873649984098 20742.08140883566 -999702.94612393167
 -0 -0 0
 0 0 -0
 37751.442981083543 16550.366326147283 -999150.09579507925
 32034.408128124538 15406.236795378136 -999368.02258411562
 25792.930684416791 13759.360783682598 -999572.61102810001
 20725.063112762433 12261.848277209883 -999710.01737293741
 16975.089482103202 11063.48330979439 -999794.70176338125
 14315.136046373724 10157.277386141019 -999845.94143101608
 12494.761534832918 9500.7155950642245 -999876.80107969767
 11315.546023970432 9045.3654176063574 -999895.06438557932
 10632.151816559503 8745.862531007946 -999905.22912740998
 10338.89392640508 8563.3160255860821 -999909.88438510022
 10356.782191260985 8466.34870549281 -999910.52499823191
 10623.871583063859 8430.8222206866703 -999908.02306475653
 11088.676071691583 8438.8578541997722 -999902.9087571922
 11705.877036624879 8477.5934445624189 -999895.54597077391
 12433.630315462504 8538.0076167505795 -999886.24716170318
 13231.965085675016 8613.9998347805886 -999875.34928450861
 14061.897254190877 8701.8144643431533 -999863.26138659625
 14884.969262391356 8799.7882741770954 -999850.48953150364
 15662.943123720685 8908.3756027205545 -999837.64334857103
 16357.398641260221 9030.3998658569672 -999825.4284563649
 16928.998416565144 9171.5253280719135 -999814.6288866594
 17336.209593025309 9340.9382502996395 -999806.08255278738
 17533.236089657727 9552.2024229200542 -999800.6506604685
 17466.818862216838 9824.1654346554533 -999799.17784140375
 17071.360193633114 10181.713102398289 -999802.4311729992
 16261.633957519329 10656.070113944954 -999810.98585220519
 14922.330295568181 11284.260737994689 -999824.97944297572
 12894.633283162728 12107.1588237301 -999843.56033216987
 9964.2784502824543 13164.853029603477 -999863.69060971239
 5870.6375553519183 14484.776779471837 -999877.85596858896
 405.49857215709386 16042.644727648974 -999871.22626918822
 -6193.2620195336658 17619.662453777488 -999825.58028916828
 -12079.918927782703 18507.702472337016 -999755.74042257632
 0 0 0
 -0 -0 0
 36614.237021455971 14699.864906365035 -999221.35266369849
 30649.646924629287 13422.204158610841 -999440.06502587243
 24551.94135162669 12079.120734428157 -999625.57841331256
 19765.216032658711 10998.517422245013 -999744.15169567009
 16287.914849448085 10209.458080830977 -999815.21832564287
 13856.134400219471 9666.6552017683589 -999857.27147263032
 12214.772498532269 9316.5654689738058 -999881.99350756966
 11168.510053472066 9112.0562395028119 -999896.11201077956
 10577.609734412974 9014.1523775963778 -999903.42495124019
 10343.045943256748 8991.4261997675058 -999906.08341759257
 10392.792655491779 9019.099502930585 -999905.31837018265
 10671.586175453011 9078.1167323956215 -999901.84770561021
 11133.923158158372 9154.2016358944493 -999896.1127774812
 11739.538693187214 9236.960913934714 -999888.42466764548
 12450.673510129855 9319.1023270188907 -999879.06021726597
 13230.57211272715 9395.8382144918141 -999868.32642394339
 14042.792645827787 9464.4923752342365 -999856.60139781318
 14850.980396641042 9524.3124696967789 -999844.35581406264
 15618.8214014602 9576.454655208081 -999832.15788164444
 16309.912410880932 9624.1256104198601 -999820.66540124314
 16887.31344828659 9672.8617022165163 -999810.60926106852
 17312.531091351193 9730.9447828105604 -999802.77304118581
 17543.643093449537 9809.930189858138 -999797.97252078867
 17532.153103750508 9925.256114079506 -999797.03585208545
 17218.008323378777 10096.877950415548 -999800.77677756909
 16522.031201427457 10349.890292065273 -999809.93306524074
 15335.046359489907 10715.120604448613 -999824.99595858483
 13503.774667005993 11229.663122855118 -999845.75947287504
 10816.928361302282 11936.817661158004 -999870.24480426998
 7006.044106385425 12882.323488953072 -999892.47476291424
 1810.9807937485839 14094.179975627776 -999899.03212243353
 -4715.9787346318708 15508.340854380956 -999868.61682348966
 -10984.184191806533 16757.38871731544 -999799.24865995848
 -0 0 -0
 42629.185074343084 14379.015238278904 -998987.48565769067
 36807.870548869258 13347.91638217195 -999233.21291574009
 29778.213823077444 11905.576307204412 -999485.62532649771
 23737.549534190519 10808.460450374236 -999659.79509271285
 19185.647644812088 10075.538194412877 -999765.16965462535
 15931.141458347578 9623.2139870937426 -999826.78123982681
 13675.598497509854 9375.7723497005845 -999862.52699987812
 12163.699918296379 9274.6004883544065 -999883.00625127088
 11206.234274365159 9275.3339336909867 -999894.18864888221
 10670.045114614284 9344.0996997886614 -999899.41391024552
 10462.31586651987 9454.7254224679546 -999900.56911369669
 10516.82978119863 9586.9190915706531 -999898.73850989772
 10783.706311074146 9725.0598174530423 -999894.56188627379
 11222.302168594502 9857.338311847745 -999888.44018492533
 11796.600898729765 9975.0971115455395 -999880.66170161078
 12472.434292355316 10072.325299523605 -999871.48506489757
 13216.009245801532 10145.279730132159 -999861.19556607085
 13993.302095945422 10192.233522495046 -999850.14170738345
 14769.972123749629 10213.330487727417 -999838.75490191532
 15511.484480840581 10210.541136233143 -999827.55448072439
 16183.180649798491 10187.700595007254 -999817.14099161257
 16750.036350279468 10150.632154615525 -999808.18207750516
 17175.846998638252 10107.349337922959 -999801.39616287802
 17421.516086627358 10068.348115609842 -999797.53907652025
 17442.034762093732 10046.993494510758 -999797.39614837931
 17181.587697172035 10060.038011903862 -999801.77469306556
 16566.099135263372 10128.344712449454 -999811.47272514633
 15492.549392204895 10277.975665585256 -999827.15712744452
 13815.044542222999 10541.870462465189 -999848.99535452295
 11330.089883677318 10962.249487387939 -999875.72135211062
 7771.2903811027882 11593.103129683235 -999902.59875931765
 2847.31575774567 12499.240549581764 -999917.82751317089
 -3567.593677299385 13734.750819647568 -999899.30937833712
 -10775.364811185565 15185.024630724412 -999826.63824292575
 -16362.334059827299 15837.42879209149 -999740.69131618831
 42297.342678763634 11887.46456110146 -999034.34524976357
 36061.270299058619 11258.251252029948 -999286.16350030794
 29034.663290536122 10368.425037560251 -999524.62905615557
 23233.02796321276 9707.8722709966787 -999682.94155078509
 18914.24115726582 9331.0817705940462 -999777.56645887753
 15842.666804276005 9175.6161117082229 -999832.39494302229
 13719.44306987213 9175.4552080360918 -999863.78467448149
 12296.885423263027 9279.1326001980178 -999881.33511285973
 11393.48734414721 9448.3776654407156 -999890.45230246591
 10882.524316741043 9654.492676138243 -999894.17511837825
 10676.585092284182 9875.5279951639332 -999894.23664584837
 10714.235550418814 10094.451828860276 -999891.64772931521
 10949.975363021833 10298.03373183606 -999887.01788792468
 11347.202613997964 10476.152646773669 -999880.73849762627
 11873.572604496156 10621.357438197907 -999873.0944673809
 12498.17596156935 10728.565751428172 -999864.33753512334
 13190.03527408851 10794.856953996654 -999854.73646565829
 13917.516618092157 10819.318747939487 -999844.61046355369
 14648.297759137584 10802.94087970912 -999834.34820029524
 15349.593405760079 10748.536637762201 -999824.41405600053
 15988.352381401415 10660.698849529403 -999815.3439951638
 16531.167039551634 10545.785052992778 -999807.73498404492
 16943.607536619082 10411.950851591026 -999802.2331656944
 17188.659902154301 10269.243035916659 -999799.52621424932
 17223.847294019466 10129.794021000391 -999800.34324733261
 16996.510647831154 10008.172196240786 -999805.4586343728
 16436.604646063221 9921.9992894261959 -999815.67899178795
 15446.412424854563 9892.9885391743355 -999831.7544071927
 13887.110105102172 9948.5860379583792 -999854.07625751791
 11564.178859129044 10124.19975591714 -999881.87819692784
 8220.0150679513299 10465.020362620426 -999911.4534302986
 3560.8153614379876 11022.301530584113 -999932.91248109774
 -2602.3532187230658 11821.877793455409 -999926.73279753933
 -9891.7208365908336 12727.715881816073 -999870.07111290342
 -16178.097576493661 13180.9803327921 -999782.24174880807
 42107.00952537635 9339.2994066279589 -999069.45566132839
 35658.408978776002 9182.0708226986389 -999321.85378110735
 28684.815815882466 8887.8507192934539 -999548.992021502
 23064.957975860267 8690.9133379070045 -999696.19171972666
 18919.943715520556 8657.956968539429 -999783.51432244189
 15980.361573221306 8767.1555210096303 -999833.86871422769
 13947.330324770377 8977.3862959166563 -999862.42979327205
 12579.632665861196 9251.2344838548761 -999878.07631856645
 11702.041478912171 9558.9775899602901 -999885.83756979986
 11192.928437532755 9877.5446366058404 -999888.57002415229
 10969.093490348552 10188.849494377358 -999887.92688679928
 10972.832294361926 10478.538271270761 -999884.8919686391
 11162.150464427747 10735.211439208528 -999880.07362501475
 11503.815836311151 10949.9959449663 -999873.87195086235
 11968.70709449168 11116.318247934269 -999866.57985908166
 12528.924848000292 11229.790694327674 -999858.4489032008
 13156.224847015435 11288.136145229233 -999849.73457522201
 13821.381887630017 11291.124553482603 -999840.72727061587
 14494.156122532295 11240.490490317774 -999831.77125546103
 15143.549732350202 11139.835164152024 -999823.27287077054
 15738.078200916589 10994.505219054028 -999815.69989150006
 16245.771550281288 10811.468422425212 -999809.575397879
 16633.621763446517 10599.195401220006 -999805.47092115739
 16866.13561828903 10367.583531583759 -999804.00413332053
 16902.592473958699 10127.956567960329 -999805.84458354558
 16692.4903116817 9893.2080773138205 -999811.72487680579
 16168.5817721762 9678.1646221156243 -999822.43928260775
 15236.900047561378 9500.2588226939533 -999838.77798335184
 13763.606710881151 9380.4986814545518 -999861.27506509377
 11560.106750314857 9344.3212764222517 -999889.51769273216
 8372.9201994905234 9420.5641516666165 -999920.57043467066
 3899.311250928537 9632.9354961003701 -999945.99950472161
 -2108.1112633094831 9969.7378753345529 -999948.07874889113
 -9448.0086956748182 10314.851597552906 -999902.16469823045
 -16093.914827236134 10420.347225473135 -999816.18424050068
 42253.569568520405 7270.3603890051827 -999080.46608795819
 35719.949088040681 7409.2872251698818 -999334.37231987703
 28759.516932639312 7538.3370190797596 -999557.93411927251
 23226.645157707146 7720.3488069753994 -999700.41470883496
 19177.301503697374 7984.8834726829173 -999784.2130894867
 16313.065698190909 8323.1771970420377 -999832.29024115484
 14328.877780453473 8712.1263902876253 -999859.38117082859
 12985.013669776488 9127.6627732315337 -999874.02966188383
 12109.294359454987 9548.9124626551438 -999881.08456000721
 11583.049839991347 9958.5823683881681 -999883.32299004565
 11325.775040434502 10342.385642501649 -999882.37402154226
 11282.367376012795 10688.469836335607 -999879.22510618763
 11413.482321689637 10987.07987292398 -999874.5003735011
 11688.638734596989 11230.422179564486 -999868.61804049066
 12081.526080430085 11412.664624007368 -999861.8843689101
 12567.032118165607 11529.985467875149 -999854.55399215512
 13119.568475253815 11580.626651200841 -999846.87128049193
 13712.348191225192 11564.901387127848 -999839.09933698247
 14317.288209814118 11485.147315509432 -999831.53913519764
 14905.248897247342 11345.607845270299 -999824.53997585631
 15446.317267092785 11152.258366901722 -999818.50273747323
 15909.857707910067 10912.582142207504 -999813.87866877671
 16264.021938974412 10635.328572028948 -999811.16785947816
 16474.387199099943 10330.275771014105 -999810.92210922996
 16501.308084163054 10008.045884877816 -999813.75558104715
 16295.488585315068 9680.0149383254884 -999820.36104620283
 15791.163994538736 9358.3763350683803 -999831.51577256713
 14896.268448732693 9056.3755562598362 -999848.0300766147
 13479.219080058134 8788.6210082074467 -999870.52701525576
 11353.188902679249 8570.9860345619963 -999898.81653102033
 8262.8032787312914 8418.6830162696751 -999930.42350868008
 3891.1036794690294 8339.2899826785488 -999957.65688090038
 -2052.2230017386278 8316.3315305992546 -999963.31283233792
 -9439.5016539213284 8288.4068783614002 -999921.09594704711
 -16236.694765831449 8176.55060797224 -999834.74322671758
 42729.098728518598 5497.6882075823723 -999071.56878084596
 36164.819113927319 5826.1878838917464 -999328.85547911539
 29192.56708246683 6254.6222048874324 -999554.23751200689
 23677.75206442357 6734.7406923630933 -999696.95774518722
 19656.492658996118 7249.025489347544 -999780.51287560177
 16814.719110954746 7783.8261125694435 -999828.32389979274
 14840.487428837507 8325.1326248300884 -999855.21556856111