# OOMMF OVF 2.0
#
# Segment count: 1
#
# Begin: Segment
# Begin: Header
#
# Title: Oxs_TimeDriver::Magnetization
# Desc: Oxs vector field output
# Desc:  MIF source file: /mnt/gpfs/work/plgrid/groups/plggspinsym/MF/switching-obrazki/p-ap/Anisotropy.mif
# Desc:  Iteration: 13100, State id: 91850
# Desc:  Stage: 0, Stage iteration: 13100
# Desc:  Stage simulation time: 1.92725e-09 s
# Desc:  Total simulation time: 1.92725e-09 s
# meshunit: m
# meshtype: rectangular
# xbase: 1.0000000000000001e-09
# ybase: 1.0000000000000001e-09
# zbase: 3.4999999999999998e-10
# xnodes: 35
# ynodes: 35
# znodes: 5
# xstepsize: 2.0000000000000001e-09
# ystepsize: 2.0000000000000001e-09
# zstepsize: 6.9999999999999996e-10
# xmin: 0
# ymin: 0
# zmin: 0
# xmax: 7.0000000000000005e-08
# ymax: 7.0000000000000005e-08
# zmax: 3.4999999999999999e-09
# valuedim: 3
# valuelabels: Magnetization_x Magnetization_y Magnetization_z
# valueunits: A/m A/m A/m
#
# End: Header
#
# Begin: Data Text
 -0 0 -0
 0 0 -0
 -0 -0 0
 -0 0 0
 0 0 0
 -0 0 -0
 0 0 0
 0 -0 0
 -0 0 0
 0 0 0
 0 0 0
 -0 -0 0
 0 0 0
 -4081.4823992433016 -29658.254168404248 -999551.76427291997
 -1200.910322389612 -29487.458591868632 -999564.42893902073
 1840.1132210202766 -29396.212667779077 -999566.1442166419
 4374.2459685758031 -29510.386612546612 -999554.90247118706
 6537.9185650158252 -29829.868301830251 -999533.60852846387
 8600.1346077318358 -30328.279903805571 -999502.99305345013
 10845.850253372044 -30977.711703686935 -999461.22931801854
 13520.515759606207 -31723.578653955392 -999405.22822876018
 16322.041314595266 -32368.678579173789 -999342.71379460325
 0 0 0
 -0 0 -0
 -0 0 -0
 -0 0 0
 0 -0 0
 -0 0 0
 -0 -0 0
 0 0 0
 0 -0 0
 0 -0 -0
 0 -0 0
 -0 -0 0
 0 0 -0
 -0 -0 -0
 -0 -0 -0
 -0 -0 -0
 -0 0 -0
 0 0 -0
 0 0 -0
 -0 -0 0
 0 0 0
 0 0 -0
 0 0 0
 -9741.4311316331186 -24444.377509081936 -999653.72851187887
 -7139.3936914328897 -24145.542257867415 -999682.96066642681
 -4981.07712020076 -23607.422302678828 -999708.89687095687
 -3214.0285987913639 -23900.072004974409 -999709.18600277102
 -549.07687811471328 -23116.28348330575 -999732.6322334893
 2129.7952266042435 -22634.132608647749 -999741.54660759529
 4436.7063307538829 -22542.447596635709 -999736.04200973327
 6461.4394681786271 -22752.567232434878 -999720.24611104687
 8413.7074051338259 -23206.159800742716 -999695.29541505966
 10527.735224213513 -23892.278896679862 -999659.10479531588
 13019.292362389122 -24845.047668748153 -999606.53340838093
 15848.288743910449 -26060.771851036039 -999534.72571712988
 18238.807486533013 -26703.294508827548 -999477.00321910554
 20211.190781296442 -28854.161539007393 -999379.2799178313
 22432.780058731503 -30429.824592415909 -999285.14256648032
 -0 0 -0
 0 -0 0
 -0 0 -0
 0 -0 -0
 -0 0 0
 -0 0 0
 -0 0 -0
 -0 0 0
 -0 0 -0
 -0 0 0
 0 -0 -0
 -0 0 -0
 -0 0 0
 -0 0 0
 -0 -0 0
 0 0 -0
 0 -0 -0
 -0 -0 0
 -15295.415024600505 -18392.951320819076 -999713.83386493893
 -12441.238426418207 -18383.876609090388 -999753.59397565504
 -9364.899474641541 -18834.905429345017 -999778.74802142975
 -6255.5369751049093 -17895.172229894717 -999820.29938785266
 -3741.6276413658616 -16877.635646378327 -999850.56165288098
 -1667.0953607705444 -16014.750041544454 -999870.3658845803
 514.62870367876917 -15098.657151290001 -999885.87634265807
 2644.6210176160125 -14521.905038198431 -999891.05419227283
 4573.6212880082012 -14334.717022044078 -999886.79253014061
 6341.4206512960191 -14472.234917692473 -999875.16260811791
 8075.4567261943221 -14888.394117071375 -999856.55107084161
 9925.215519324991 -15587.306693623643 -999829.24840541335
 12012.320518062515 -16629.761405389803 -999789.55545223167
 14313.282606328607 -18095.24125970856 -999733.81066401082
 16563.389102822239 -19892.94111432962 -999664.90637375601
 18839.826357461025 -22215.213920912887 -999575.68258399959
 21566.624986963612 -24496.283101542791 -999467.26449688233
 24339.394694497976 -25819.995102024677 -999370.26257480611
 26873.731998403615 -27731.950907053026 -999254.09252470254
 -0 0 -0
 -0 -0 -0
 0 0 -0
 -0 0 0
 -0 0 -0
 0 0 -0
 0 -0 -0
 -0 -0 -0
 -0 -0 0
 0 0 0
 0 0 0
 0 0 -0
 -0 0 0
 0 0 0
 -0 -0 -0
 -18028.532335458498 -12397.842064254182 -999760.60411179392
 -15059.087852761579 -13052.673550417125 -999801.40607334068
 -11239.78281368404 -12218.029873171879 -999862.18401753705
 -7764.4783210636533 -11261.528253714829 -999906.44105225778
 -4772.9313314388273 -10093.766246749312 -999937.66556193959
 -2353.6303357323486 -9039.0923338480061 -999956.37666551373
 -366.59213981511675 -8154.6002997227461 -999966.68349708267
 1445.020349436312 -7421.5226948659838 -999971.41605001863
 3135.4121056887443 -6957.7845946664174 -999970.87878820836
 4701.1085582027217 -6799.5251617346676 -999965.83243423817
 6182.0671311725655 -6927.9440805015938 -999956.891889247
 7655.2701634764662 -7327.4101953181262 -999943.85137294279
 9207.0454767380088 -8011.8971654423567 -999925.51713485119
 10901.959202853113 -9029.3806628011007 -999899.80376555002
 12741.918768997224 -10437.136887119212 -999864.345638789
 14677.705793411342 -12240.518559888862 -999817.35064862063
 16796.180137482388 -14449.038987234901 -999754.5266739903
 19303.386331715796 -16935.410819287394 -999670.2311945227
 22210.694002758308 -19513.583535897753 -999562.8570177583
 25550.150995920591 -22155.420002301638 -999427.99998229358
 28534.486865939958 -23275.247610147559 -999321.7929716052
 -0 -0 -0
 0 -0 0
 -0 0 -0
 -0 -0 -0
 0 -0 -0
 0 -0 -0
 0 0 -0
 0 -0 -0
 -0 0 -0
 0 0 -0
 -0 0 0
 -0 0 0
 -0 0 -0
 -19337.765869061823 -6014.4557346404235 -999794.91753729654
 -17037.489400214054 -6771.0503469597325 -999831.92429134645
 -13298.889191532773 -5950.2194554286571 -999893.86158467014
 -9429.42433561084 -4701.2498195850703 -999944.49056276761
 -6087.5129945551498 -3556.4236045814478 -999975.14670950011
 -3356.9218144582119 -2536.9699483240288 -999991.14739052206
 -1175.1401268880734 -1687.3793977994555 -999997.88589599018
 596.81400595939192 -1007.8350354689359 -999999.31404055632
 2120.1670242861424 -494.86774535678796 -999997.62999604351
 3489.402785134092 -185.83683399953404 -999993.89474780008
 4756.8911401066071 -105.19250680638561 -999988.68039654219
 5971.4347907331539 -259.79721145021188 -999982.13707643235
 7187.3171193199878 -657.18419153466459 -999973.95495160995
 8457.2920177317101 -1318.4961578851935 -999963.36721882375
 9820.7018065001303 -2279.9119882138521 -999949.1766171687
 11295.004555034271 -3579.7594882583003 -999929.80163314857
 12895.710249701249 -5237.6491196549596 -999903.12915244733
 14697.651037329042 -7262.2133672180562 -999865.61062524491
 16833.695939322482 -9636.9389754535441 -999811.86034583824
 19429.159180440078 -12340.330265602526 -999735.07691911911
 22611.975503574751 -15348.406597595256 -999626.49273553211
 26163.363797724793 -18245.309893175272 -999491.16407384514
 28852.418307898548 -20016.117761653895 -999383.25630737771
 0 -0 -0
 -0 0 -0
 0 0 0
 0 0 -0
 0 -0 0
 -0 0 0
 -0 0 0
 0 -0 0
 -0 -0 -0
 -0 -0 -0
 0 0 0
 -19739.177005937276 947.02569049850479 -999804.71494860924
 -18159.072228737317 -159.13260816326098 -999835.09778993286
 -14960.407608677426 428.78086428346262 -999887.99490300543
 -11210.935068681489 1584.0339235818169 -999935.9008313556
 -7667.7098609179939 2724.7227909722501 -999966.89050748141
 -4658.3114733433013 3663.2350065224637 -999982.44026757986
 -2222.7649130169516 4412.7192181868631 -999987.79353812255
 -286.19888962382282 5001.700091667436 -999987.45046444889
 1269.1837052001533 5452.8025611564499 -999984.32793566899
 2564.7696570066446 5772.0940424305309 -999980.05224452936
 3693.9164444028243 5943.4792536960595 -999975.51471806678
 4723.2921762151764 5945.5747379268723 -999971.16991043987
 5705.4150177198462 5758.38671910222 -999967.14407117851
 6685.37230935752 5360.2053231819973 -999963.28632404224
 7701.234839276759 4723.9662765455496 -999959.18672942277
 8782.4231042639112 3817.9418550864279 -999954.14513087005
 9951.8311505436905 2611.8191265946189 -999947.06832791935
 11239.889672534657 1083.544797730546 -999936.24337295652
 12708.460989248215 -783.43059084115782 -999918.93734231975
 14456.690757151238 -3004.2203458158347 -999890.98343392729
 16608.980878307932 -5603.6871168953785 -999846.35841957247
 19299.157625824628 -8613.3952194146768 -999776.65102648176
 22545.38896035646 -11971.88256050059 -999674.13663882692
 25991.37588507745 -15341.500270467313 -999544.43960689008
 28495.549287271398 -17555.371273785262 -999439.74936474091
 0 -0 0
 0 0 0
 0 -0 -0
 0 -0 0
 0 -0 -0
 -0 -0 0
 0 -0 -0
 0 -0 0
 0 0 -0
 -19148.925432213739 8351.0439964905036 -999781.76554634166
 -18528.389849144885 6846.6743535680398 -999804.89187635703
 -16138.618545669531 7025.3982434232339 -999845.08238574571
 -12846.967113251667 7897.0027903594291 -999886.28992646991
 -9406.3558629636809 8865.0969938721901 -999916.46177301661
 -6254.7057645423256 9685.4766258159452 -999933.53289022646
 -3579.2851582830567 10310.194115440167 -999940.44253398292
 -1404.6118912921497 10774.528026395525 -999940.96656314831
 326.43731281203463 11120.374672915757 -999938.11343793408
 1704.438749374423 11373.880834209351 -999933.86267458636
 2824.8827020900621 11540.636454913174 -999929.4143828029
 3770.758885863565 11607.62390002858 -999925.519448734
 4608.4243345225386 11551.35342007353 -999922.66133902455
 5390.3102865668952 11343.65607589715 -999921.12990067666
 6158.1348478733262 10953.726469397434 -999921.04350875074
 6944.9628711279656 10349.060221846183 -999922.32920524536
 7777.2854251154731 9497.4314974605095 -999924.65347463416
 8679.5673126748006 8370.1360785848192 -999927.30032402393
 9683.5348602239847 6944.148236699918 -999929.00145854231
 10840.028890319249 5199.732154628884 -999927.72566779924
 12225.415641321641 3114.7626690745601 -999920.41556611506
 13941.095502726968 656.58552452007359 -999902.6026326929
 16104.415901538532 -2219.3454520859964 -999867.85241562524
 18806.741058519525 -5540.3819389148885 -999807.78685641801
 22028.368844247838 -9238.0286133278933 -999714.66418843775
 25452.44890440883 -12905.974189913035 -999592.72139955952
 27995.095359417508 -15308.928286658367 -999490.82604620804
 0 -0 0
 0 -0 0
 0 0 -0
 0 0 -0
 0 0 -0
 0 -0 0
 -0 0 -0
 -17173.040526513603 15572.495243124256 -999731.25592379959
 -17870.423893723742 13817.766106516123 -999744.82608797937
 -16674.466658133173 13596.921654735514 -999768.51614920446
 -14183.660818808667 14139.362559319259 -999799.43098213105
 -11141.505780929419 14877.609858769887 -999827.24686508917
 -8066.3609036065318 15535.391578221108 -999846.7809771077
 -5257.4204214345964 16026.874611609186 -999857.73929129343
 -2851.0044619011737 16362.234977237607 -999862.06500702293
 -875.18445927357573 16585.722038738004 -999862.0644251965
 704.4002471025816 16738.317262206525 -999859.65642960195
 1952.6852669631417 16843.318096921124 -999856.23449360684
 2944.1990070085562 16903.666856064789 -999852.78803383163
 3750.0347384044994 16904.700891464363 -999850.07292455155
 4431.9145712092622 16819.61840736607 -999848.71784178633
 5040.8567631302358 16614.570424810099 -999849.26154530537
 5617.9267457501255 16252.383370300955 -999852.13853542565
 6195.919417802882 15695.490669765586 -999857.62094170379
 6802.0156261944185 14908.723261319494 -999865.72226181393
 7462.0593702890255 13861.797228907761 -999876.07644524577
 8206.8362297065469 12530.310983563291 -999887.8132799468
 9079.1696907579153 10893.881063289959 -999899.44096049236
 10139.285018663475 8931.578285299971 -999908.70673709223
 11467.38414351451 6615.8959680426915 -999912.36067039648
 13162.089592358012 3909.6848999587914 -999905.73243758618
 15329.793839517393 774.8450379848606 -999882.19157859031
 18061.833122158623 -2795.9500542140472 -999832.96247301332
 21375.226899668505 -6688.7055127525628 -999749.14898365946
 25017.627665310934 -10442.172260136607 -999632.47213387862
 27942.325237596149 -12766.868173722074 -999528.00537921453
 0 0 0
 0 0 0
 -0 0 0
 0 -0 0
 -0 0 -0
 -13209.991994686674 21371.495059228266 -999684.3278307576
 -15698.626747170476 19838.91077266966 -999679.93414772849
 -16135.929858224699 19433.329515385103 -999680.93783544598
 -14870.577170014365 19774.583801728062 -999693.86902696337
 -12598.093990135796 20374.887013563613 -999713.0348289957
 -9894.3430892705801 20941.630428625278 -999731.73906294617
 -7154.9734015596723 21358.987557091597 -999746.26781306823
 -4620.496853786236 21616.224906002924 -999755.66506503837
 -2414.2975372235646 21750.825692729009 -999760.50769626151
 -577.76362603174084 21811.792381544099 -999761.92761191749
 900.44543295559015 21838.669729567147 -999761.10231518059
 2062.1411173996962 21852.73471951461 -999759.07375691785
 2963.4585024540611 21855.54757688395 -999756.74689087179
 3663.7821100978858 21831.397650653998 -999754.95336470753
 4219.0839618336877 21751.573893033972 -999754.50404771802
 4678.6646778151353 21578.936779511419 -999756.20007294696
 5084.2356333756525 21272.117338220687 -999760.79517651268
 5470.6313060846533 20789.294513926987 -999768.9120125341
 5867.8248064240097 20091.568211121688 -999780.92476244969
 6304.1440109467094 19145.60705696595 -999796.83111055591
 6810.4973000326836 17924.850871810915 -999816.14152190485
 7425.0069851916223 16408.56669115273 -999837.80095094023
 8197.2353666902327 14578.727258155672 -999860.12323918357
 9191.7147614079622 12415.563173451626 -999880.67596630298
 10490.734886482393 9894.1269649313326 -999896.01996064757
 12196.198651043593 6985.9788647790865 -999901.21954009298
 14430.529885454729 3672.0808819981717 -999889.13166871702
 17329.036551439036 -18.918521703627366 -999849.84079325059
 20988.333228965825 -3913.1376651949258 -999772.06263322011
 25255.459781210069 -7440.1301387837666 -999653.34302184847
 29041.323796358003 -9131.0354424239813 -999536.50543834781
 0 0 0
 -0 -0 -0
 0 -0 -0
 0 0 -0
 -11840.422264175497 23309.277503164678 -999658.18257186608
 -13916.928916307845 23425.765267377308 -999628.70737648185
 -14300.24043927566 23934.525113151511 -999611.2452503657
 -13252.685641975082 24642.45362458843 -999608.48125785473
 -11325.346699660422 25316.189320014659 -999615.33955839532
 -8977.5773972253428 25828.1583690037 -999626.08476336917
 -6540.599253499825 26148.675138600007 -999636.66766975948
 -4231.8985777626203 26306.593575064046 -999644.96405919222
 -2178.4820648659684 26354.734448990981 -999650.2799419486
 -439.58132508931629 26346.633209044609 -999652.77055926097
 973.52356212151187 26323.256679464947 -999653.0090034547
 2081.1830330874122 26307.224999751044 -999651.73865201441
 2922.4139012343821 26301.917679247621 -999649.77298221004
 3545.0415995913227 26293.433869452139 -999647.98204938613
 3998.7674112911341 26254.050558886265 -999647.30514739128
 4330.852113969836 26146.282659582681 -999648.74612188258
 4584.0012148498708 25927.067780429035 -999653.32695348491
 4796.0127372713241 25551.86015499074 -999661.99322793283
 5000.7795178056231 24978.431760220796 -999675.4824196772
 5230.2773915341877 24170.004587660293 -999694.18077562086
 5517.2010179696108 23097.157236334449 -999718.00114858744
 5897.9313430629445 21737.982071223585 -999746.30509011832
 6415.6842283118131 20076.333467007957 -999777.86524327693
 7124.0790129978723 18098.607436393711 -999810.82606015005
 8091.7719169364464 15790.347586905871 -999842.58168490161
 9409.1888276254922 13134.96565051879 -999869.46140131995
 11198.468578343602 10118.254727153426 -999886.10112491122
 13624.356535125446 6746.2172719877035 -999884.42605209292
 16887.803532068214 3093.9677687804701 -999852.60386484349
 21107.73690651729 -566.19822880810455 -999777.046577011
 25562.222316340252 -3428.0409248576511 -999667.35533659765
 -0 0 -0
 -0 -0 -0
 0 0 -0
 -1999.2254251757709 25211.756285037471 -999680.1340642533
 -7993.4207805917085 25101.354655793733 -999652.95338865917
 -11305.518423286803 25852.439509208929 -999601.83904622926
 -12259.818408182628 26912.251960148056 -999562.61812206253
 -11680.750417020256 27940.805867650364 -999541.3305297395
 -10185.697792627308 28782.352957564995 -999533.80519055144
 -8210.5004817453282 29383.589948570054 -999534.48781098763
 -6064.8789286650299 29756.849143533713 -999538.76721847546
 -3962.7226518846369 29950.725219515843 -999543.52125758363
 -2042.1898482582776 30026.578970111339 -999547.01441001531
 -381.92404762284366 30042.299079841177 -999548.55529885029
 984.87002853108402 30042.682006649466 -999548.13155188994
 2058.1014209471964 30054.933811943174 -999546.12958687462
 2860.1555516467015 30087.706414604567 -999543.17036980903
 3427.0370384169214 30132.388140496892 -999540.04152014211
 3801.4421862501704 30165.754947195837 -999537.68126357801
 4027.8376638718587 30153.401949881296 -999537.16733026132
 4149.4607820487781 30053.610786599555 -999539.67527752777
 4206.9902617052785 29821.426973598209 -999546.38898162008
 4238.4987070271163 29412.699459622352 -999558.36659957399
 4280.2568410235826 28787.707959808198 -999576.38391060208
 4368.0248893395101 27913.871293750461 -999600.78838902572
 4538.658693556964 26767.019698193668 -999631.39568229846
 4832.1594693742472 25330.909598921779 -999667.44232957496
 5294.6909828550706 23595.061552608 -999707.57690322853
 5983.4969244235308 21551.575525548906 -999749.83238654374
 6975.0984011584396 19192.264725934827 -999791.48074835271
 8378.4857386276763 16508.385822051059 -999828.62240199838
 10354.088420896936 13497.255315864895 -999855.29800662189
 13132.183353400516 10185.190030775697 -999861.89429561212
 16984.236127754179 6692.7795206196779 -999833.35732783237
 21883.627286863684 3452.8173411262596 -999754.56233476556
 26068.460029274454 2193.8131792994996 -999657.75272111851
 -0 -0 0
 0 0 -0
 -250.10301770551274 24805.481505930784 -999692.26541758329
 -5247.2835822252782 25569.680491967541 -999659.27067903802
 -8688.3614400669394 26857.86309367069 -999601.50438338588
 -10110.725018471472 28318.777022126218 -999547.80781489995
 -10044.297327741142 29658.492878291851 -999509.6227107473
 -9016.2735314344518 30745.281236239705 -999486.5854494049
 -7430.022857114679 31548.222272088984 -999474.61420078762
 -5583.5644244512514 32092.580344765276 -999469.30422856566
 -3693.1350512286976 32432.31969966679 -999467.11071069853
 -1909.4198676833773 32631.174181374878 -999465.63752202783
 -329.50659128475411 32749.686941214313 -999463.53081573639
 992.9881083921349 32837.09909829191 -999460.22376952344
 2038.6162093435885 32927.036418769268 -999455.67901564704
 2813.429596062495 33035.967987700831 -999450.20357845922
 3341.1398166448944 33163.590540142686 -999444.35215133999
 3656.4485848781474 33294.527963619097 -999438.89497628913
 3799.8406223938241 33400.947397269672 -999434.8092418079
 3813.9633090913121 33445.841681690792 -999433.2540785704
 3741.4790914682544 33386.791804522974 -999435.50240483729
 3624.0732274747625 33179.985936240533 -999442.82208964461
 3502.1946034660759 32784.156091945493 -999456.31907667592
 3415.1800975438478 32163.95411625917 -999476.77141617867
 3401.6453794713066 31292.214947350782 -999504.49028125999
 3500.3872744029732 30150.625222746607 -999539.23739271308
 3752.4345419989722 28728.566681314904 -999580.20623231877
 4205.2636704472816 27020.318321548188 -999626.0391542752
 4920.5626153074281 25021.316697995084 -999674.80801220937
 5987.2770346317802 22724.790379016078 -999723.83007305593
 7541.4324938237742 20121.086092562073 -999769.10768956889
 9790.2048670964396 17204.708373729984 -999804.05575214338
 13013.898447768714 14005.779542078973 -999817.2215893314
 17405.887988090872 10721.642573393043 -999791.01888538396
 22147.775465958053 8190.5185325058801 -999721.1568472872
 0 0 0
 -0 -0 0
 3085.6543801259177 23673.199622766318 -999714.98856257368
 -2061.1902767970541 24834.524044973416 -999689.45073462802
 -5874.907923077255 26517.801752215488 -999631.0777717575
 -7801.4186943933419 28301.381088109854 -999568.99196346616
 -8257.476590645274 29933.463605650868 -999517.78465264128
 -7705.5780411856576 31296.236917199662 -999480.44984475488
 -6520.1880164360682 32359.351329092977 -999455.03126943693
 -4988.8847866128463 33144.000374318122 -999438.13528790954
 -3329.2710350002681 33699.006062863991 -999426.48201093345
 -1701.8691887232108 34084.490260688275 -999417.50593279756
 -219.01443929669333 34360.521208436345 -999409.47894992481
 1047.9896459062149 34579.501035622387 -999401.40075238491
 2062.0929741423965 34781.489348608557 -999392.81354793545
 2813.6824331475977 34991.790871196783 -999383.63893091213
 3313.8923830241915 35220.251809485882 -999374.08010201552
 3588.4486585023305 35461.853866707934 -999364.58810414188
 3672.4679109733652 35698.328349702089 -999355.86371046025
 3606.4679146494436 35900.61403135505 -999348.85765750101
 3433.6030787013437 36032.019749657462 -999344.73727671069
 3197.8878031023196 36051.918414520798 -999344.80170371197
 2943.0374577832549 35919.687792468249 -999350.34625471244
 2711.5894734848098 35598.463144783876 -999362.49514590879
 2544.2049786713364 35058.133547939266 -999382.03620695602
 2479.4092720911453 34276.980506092346 -999409.29610297631
 2554.4279917748449 33241.480518532742 -999444.08491449419
 2808.1096991876484 31944.090720870554 -999485.71254817559
 3287.2132905265466 30379.271284030041 -999533.03802577418
 4057.580998907024 28538.557254544339 -999584.45705516369
 5221.6363510412421 26406.398382005176 -999637.65267136099
 6941.3850792896501 23960.937349545613 -999688.79690357263
 9453.4612360733063 21193.07485716153 -999730.70656490128
 12998.154927388601 18192.337684876777 -999750.01216206187
 17153.028625266699 15480.429523230594 -999733.02931870637
 -0 0 -0
 17527.268671691509 20691.619682269935 -999632.25824691879
 8720.884742228347 21754.69594827374 -999725.30195724813
 1702.5752247722512 23196.500255339721 -999729.47521492431
 -2849.5710299657298 25111.661341524035 -999680.59119381418
 -5329.6575136210058 27126.138532496614 -999617.81064520008
 -6294.3292412116762 29001.945250889348 -999559.53729183506
 -6205.9666510426368 30622.469498979593 -999511.75597874296
 -5422.2080714963204 31948.910285808437 -999474.79547569342
 -4219.477617273431 32990.470657976657 -999446.7593896148
 -2812.6815775299356 33784.508224034289 -999425.18270574091
 -1367.1800645572182 34382.70096021863 -999407.80499921634
 -5.7449182491052362 34841.02150160668 -999392.86728879588
 1186.5566318278784 35212.456346084058 -999379.14477010886
 2157.7582895484497 35541.908085597395 -999365.85735595284
 2883.9820988146657 35862.890514685561 -999352.55827519926
 3364.0397691999415 36195.708765765805 -999339.05852987408
 3614.0393229763436 36546.883563678872 -999325.4044712137
 3662.4597997085939 36909.651600496261 -999311.89525940584
 3546.0479672027009 37265.427035245819 -999299.11112323881
 3306.6482513694164 37586.133765028426 -999287.92078456504
 2988.8315915033427 37837.283038395486 -999279.4438484112
 2638.0099635890178 37981.576459011318 -999274.95753327094
 2298.7296894643291 37982.659027149959 -999275.75446172117
 2013.0226052631861 37808.481284662172 -999282.97617988964
 1819.0413363637615 37433.611965482953 -999297.4611114721
 1750.5773161067607 36839.854130076361 -999319.64887454046
 1838.3921987970675 36014.696972801619 -999349.56942807592
 2114.5527086438415 34947.494074049726 -999386.91272438935
 2621.2736257059782 33623.809186058628 -999431.12237932568
 3426.2041925401722 32019.324740491655 -999481.37749934779
 4646.2337726627966 30096.875013491757 -999536.18775217549
 6478.4736707354923 27815.768878737021 -999592.07298806764
 9207.9612889287 25177.876688576951 -999640.57939559279
 12956.125312888902 22410.509606100532 -999664.89779129077
 16163.699870694267 21003.004663504184 -999648.74260992033
 19145.547139691138 18227.736161664117 -999650.5377676452
 11758.481805443953 19277.69791692256 -999745.02172736754
 4871.3676880733638 20908.135713716623 -999769.5332614535
 73.660150143356859 22955.327336258302 -999736.4890415211
 -2796.0100831438317 25110.179660237314 -999680.77965170739
 -4192.2364804305998 27156.531223987204 -999622.4026927232
 -4527.5385239906736 28978.018013724926 -999569.79539545416
 -4130.375242857579 30526.115979905084 -999525.43551604252
 -3259.7827606909523 31796.179340748527 -999489.05786691047
 -2122.2290304501498 32811.607366272954 -999459.30110534467
 -882.06298793258816 33612.71765101725 -999434.54371809564
 333.03969475934542 34248.302850639135 -999413.29930935614
 1428.9332420271057 34768.965968384429 -999394.35517481237
 2342.2319228677429 35221.876107147691 -999376.77249029151
 3036.9853846683645 35646.799021994339 -999359.83631485747
 3500.6507424903921 36073.31396742897 -999343.01491719345
 3739.646291615863 36519.148934806217 -999325.95623584767
 3774.9418186578037 36989.574026459319 -999308.52154257498
 3638.0724752243459 37477.807647254624 -999290.83772574458
 3367.7790763550574 37966.38490812089 -999273.34182449873
 3007.2247909428329 38429.409013936034 -999256.79238216672
 2601.5605599744122 38835.519904311033 -999242.23003054399
 2195.5560238899743 39151.278883123327 -999230.88267705264
 1831.1606146275724 39344.487240886898 -999224.02802102151
 1545.139447275604 39386.794618154861 -999222.84449155594
 1367.2846495926906 39254.864802049262 -999228.2952969555
 1320.0069334405659 38929.424863770138 -999241.09075911809
 1420.3971159135567 38391.745688354233 -999261.75566516793
 1686.2462477731221 37617.512346482727 -999290.78817852319
 2148.3673071941776 36568.744118906419 -999328.83050149179
 2873.0018324278981 35185.887766618122 -999376.65530196659
 3998.3213457308034 33386.014398449464 -999434.53385852266
 5774.4325284450879 31086.420895943083 -999500.02019252337
 8501.8319484526601 28337.226078722637 -999562.26442962699
 11875.671656017792 25870.194315591914 -999594.76862816361
 21572.986012801972 15124.438610308744 -999652.86856549059
 14549.831453951841 16385.102456089502 -999759.88658385596
 7801.4459502010568 18204.648083102929 -999803.84487621184
 2890.1198815929602 20339.204014349951 -999788.95972456736
 -257.17194683010115 22561.245831117194 -999745.42962153
 -2006.6489291047585 24698.171328027252 -999692.93970355066
 -2715.2188807198531 26643.966794604225 -999641.29897672671
 -2677.4161422807201 28345.063420113453 -999594.61224163789
 -2130.8104071330185 29785.250792341205 -999554.04980533512
 -1268.8838985000366 30974.594566214582 -999519.3667083747
 -249.86550777191496 31941.29685905738 -999489.71536589088
 798.87941106454355 32725.144180987008 -999464.0697543961
 1778.8952665905538 33371.842056133159 -999441.42183992499
 2619.2627126843022 33928.036536810963 -999420.84619023162
 3274.7364936072249 34437.052801621343 -999401.50364867679
 3723.0405000138653 34935.451998333039 -999382.6360124069
 3961.4679071816317 35450.492507109069 -999363.58216267987
 4003.1514422386217 35998.554760413943 -999343.82413346204
 3873.3959224070463 36584.552079574059 -999323.05454901094
 3606.3133370278665 37202.325248877736 -999301.24662195425
 3241.8035555113693 37835.97246936211 -999278.70481513068
 2822.7217556046826 38462.000092675604 -999256.07668443094
 2392.0045454797441 39052.056647644829 -999234.31445574539
 1989.5909342336438 39575.853863085758 -999214.58822363173
 1649.2053499124377 40003.692842097604 -999198.17087538191
 1395.3487335478683 40307.87302105868 -999186.33316035196
 1241.1303367403941 40462.209105791298 -999180.29865973978
 1187.8281946866673 40438.973015460433 -999181.30413135467
 1227.5141913520843 40202.825463517234 -999190.7856028598
 1351.1292902507041 39701.826366311681 -999210.65818616061
 1566.7436182879376 38856.975932409885 -999243.55426283483
 1936.7676847911814 37556.354008477501 -999292.63441923016
 2646.02281813433 35677.041997598564 -999359.86873475555
 4088.1167297725638 33216.757373072491 -999439.81025933812
 6592.1300751182189 30757.21230512562 -999505.14641611034
 24387.112214684017 12101.780825483393 -999629.33913460164
 17437.575128423399 13446.964769119886 -999757.52565916628
 10672.623152667666 15349.687648612278 -999825.22582906019
 5631.3089858981411 17511.028447964287 -999830.81180857786
 2251.9224096182029 19738.54854617401 -999802.63979785098
 205.69727584827172 21894.546053170401 -999760.26453433139
 -828.23674401930941 23888.108087815999 -999714.29534436518
 -1116.5426327353489 25666.477869084796 -999669.93815276097
 -876.08206909092712 27206.431695852934 -999629.45262461482
 -285.51390623666907 28507.5931064752 -999593.53520172648
 506.38726692071793 29587.274031509802 -999562.07250341401
 1376.6491050085358 30475.966354248445 -999534.55183501099
 2226.6802451471435 31212.974361459605 -999510.27614857303
 2981.7793599537918 31842.084813136385 -999488.46447900624
 3590.383718911401 32407.421279542541 -999468.29273907514
 4022.5278058167714 32949.709277094058 -999448.91611758037
 4267.4652683874347 33503.172775309198 -999429.50034215557
 4330.7092179097708 34093.221702525596 -999409.27411727188
 4230.8137445325901 34735.033114900623 -999387.6013287165
 3996.162912779444 35433.064435149237 -999364.06210485147
 3661.8548627591799 36181.488703160452 -999338.5265735467
 3266.6109244711188 36965.46875239598 -999311.20446684863
 2849.5211999852727 37763.096841529834 -999282.65708250355
 2446.4713028263341 38547.682751371562 -999253.7670345126
 2086.2242206593241 39289.91156077756 -999225.67546978465
 1786.3585951511602 39959.22467558035 -999199.71441463905
 1549.4729633208713 40523.679587610008 -999177.37690873316
 1360.3105424094026 40947.54643509681 -999160.37151008646
 1184.9033488145574 41186.073033794346 -999150.7911181919
 974.10227064510957 41177.318750182785 -999151.37969444471
 677.2210412817692 40832.333830340307 -999165.78298379947
 279.81147230355913 40029.439792414152 -999198.4615958163
 -102.593625650305 38632.964867441086 -999253.46309137146
 -30.264297183437108 36601.058167770643 -999329.9563332781
 1276.2129785084696 34380.560132117811 -999407.9989500962
 27318.964103245235 9239.5335012507148 -999584.06611000211
 20364.763894308649 10584.685669209537 -999736.58571686444
 13501.048948525569 12497.198377425919 -999830.75653332705