# OOMMF OVF 2.0
#
# Segment count: 1
#
# Begin: Segment
# Begin: Header
#
# Title: Oxs_TimeDriver::Magnetization
# Desc: Oxs vector field output
# Desc:  MIF source file: /mnt/gpfs/work/plgrid/groups/plggspinsym/MF/switching-obrazki/p-ap/Anisotropy.mif
# Desc:  Iteration: 38900, State id: 272450
# Desc:  Stage: 0, Stage iteration: 38900
# Desc:  Stage simulation time: 5.72728e-09 s
# Desc:  Total simulation time: 5.72728e-09 s
# meshunit: m
# meshtype: rectangular
# xbase: 1.0000000000000001e-09
# ybase: 1.0000000000000001e-09
# zbase: 3.4999999999999998e-10
# xnodes: 35
# ynodes: 35
# znodes: 5
# xstepsize: 2.0000000000000001e-09
# ystepsize: 2.0000000000000001e-09
# zstepsize: 6.9999999999999996e-10
# xmin: 0
# ymin: 0
# zmin: 0
# xmax: 7.0000000000000005e-08
# ymax: 7.0000000000000005e-08
# zmax: 3.4999999999999999e-09
# valuedim: 3
# valuelabels: Magnetization_x Magnetization_y Magnetization_z
# valueunits: A/m A/m A/m
#
# End: Header
#
# Begin: Data Text
 -0 0 -0
 0 0 -0
 -0 -0 0
 -0 0 0
 0 0 0
 -0 0 -0
 0 0 0
 0 -0 0
 -0 0 0
 0 0 0
 0 0 0
 -0 -0 0
 0 0 0
 22536.015821432618 31161.655999872812 -999260.26598991815
 20105.627436969266 30414.443491977188 -999335.14166791877
 17787.051773970077 29655.729524113616 -999401.9003862174
 15960.309080469733 29139.537248636552 -999447.92555840127
 14384.245035191625 28908.75096535699 -999478.55285263155
 12749.456889951389 28972.398901605768 -999498.90017493139
 10741.321519672776 29343.665416579486 -999511.66742161184
 8111.1569152078227 29998.568982364184 -999517.03086666157
 5265.9329024799781 30692.001174847792 -999515.01790345798
 0 0 0
 -0 0 -0
 -0 0 -0
 -0 0 0
 0 -0 0
 -0 0 0
 -0 -0 0
 0 0 0
 0 -0 0
 0 -0 -0
 0 -0 0
 -0 -0 0
 0 0 -0
 -0 -0 -0
 -0 -0 -0
 -0 -0 -0
 -0 0 -0
 0 0 -0
 0 0 -0
 -0 -0 0
 0 0 0
 0 0 -0
 0 0 0
 27428.636146704852 29147.104846155016 -999198.73708798236
 25240.950500998093 27532.178144039885 -999302.19332514796
 23472.294016770487 25469.556115247487 -999399.99656037742
 21767.424559425221 24894.887740084952 -999453.0623258194
 19540.482550719389 23624.116029500536 -999529.92485643469
 17559.439128830982 22666.410079230147 -999588.86545999546
 15957.263515581222 22088.575106792996 -999628.66134922625
 14549.105228923472 21848.247961246925 -999655.42943459365
 13096.818551436212 21936.244798996187 -999673.58398026566
 11365.634006998915 22391.054209158818 -999684.6818147318
 9194.8409759686874 23281.323496220208 -999686.66834948375
 6812.1272014050146 24535.015108796 -999675.76141297061
 5207.029008929404 24983.186032785172 -999674.31059548166
 3120.2481233555577 26768.582826027996 -999636.78755092586
 400.11165816368776 28206.563118662365 -999602.03566604154
 -0 0 -0
 0 -0 0
 -0 0 -0
 0 -0 -0
 -0 0 0
 -0 0 0
 -0 0 -0
 -0 0 0
 -0 0 -0
 -0 0 0
 0 -0 -0
 -0 0 -0
 -0 0 0
 -0 0 0
 -0 -0 0
 0 0 -0
 0 -0 -0
 -0 -0 0
 32170.08297956879 26815.826497282214 -999122.61370181933
 29461.609363618103 24886.020368334262 -999256.07306832634
 26639.841311950368 23520.186736106472 -999368.36035106308
 23993.994207986201 21272.125061390034 -999485.76024739805
 21953.211454986704 19115.751142170226 -999576.23249309161
 20217.668052336528 17516.355646884611 -999642.1475625051
 18522.340751385636 16173.891911322087 -999697.61833943089
 17031.691332036007 15236.279608589104 -999738.85453855339
 15772.740267305022 14677.237011772084 -999767.87274754944
 14637.018185962335 14446.947338953567 -999788.49933933979
 13475.52843066652 14533.950885694478 -999803.56790980021
 12145.566063928574 14972.540127937078 -999814.1368609987
 10562.370116176155 15824.952164624643 -999818.98723044689
 8795.6196517808185 17094.237885013219 -999815.19497658755
 7011.2622243993237 18558.653004457523 -999803.18993323937
 4747.150896690232 20537.548197129738 -999777.81215248769
 1775.3687859218796 22674.241352582518 -999741.32996728632
 -1265.7693152439517 23882.286957639546 -999713.97619404795
 -4526.3684471132474 25578.961494673178 -999662.55742502189
 -0 0 -0
 -0 -0 -0
 0 0 -0
 -0 0 0
 -0 0 -0
 0 0 -0
 0 -0 -0
 -0 -0 -0
 -0 -0 0
 0 0 0
 0 0 0
 0 0 -0
 -0 0 0
 0 0 0
 -0 -0 -0
 34237.191818290165 23170.430202049072 -999145.10750973981
 31091.232647463352 21877.949586743813 -999277.0839833871
 27543.312954387475 19258.163905663827 -999435.08495273441
 24554.398568512621 16841.090043193122 -999556.63131065061
 22146.827202763918 14600.754550565578 -999648.10609104089
 20299.624924492284 12707.353235362909 -999713.18306886242
 18821.223402535688 11230.326118965842 -999759.79181246005
 17550.276347091105 10095.00746655088 -999795.01830344764
 16462.528331049358 9298.898435576808 -999821.24184717867
 15526.439062958963 8811.1694496203345 -999840.63379268325
 14669.455219664733 8600.6232086885866 -999855.40772852791
 13800.383242039812 8660.1545880466892 -999867.26676338585
 12831.986173230576 9010.5387636551222 -999877.06760483247
 11702.579334509915 9687.7921805955921 -999884.59150023165
 10389.199984297204 10709.763118352561 -999888.67655236251
 8847.1997872878092 12057.303199159698 -999888.16799454484
 6854.978305247565 13820.258349329675 -999880.99778503261
 4231.8512201791918 15959.091762781336 -999863.69012248737
 973.78769346133811 18270.807025005943 -999832.60066282272
 -2982.3259260079053 20804.416608691878 -999779.11659608257
 -6466.912744467495 22039.262204457867 -999736.1901827096
 -0 -0 -0
 0 -0 0
 -0 0 -0
 -0 -0 -0
 0 -0 -0
 0 -0 -0
 0 0 -0
 0 -0 -0
 -0 0 -0
 0 0 -0
 -0 0 0
 -0 0 0
 -0 0 -0
 35272.707092819495 20975.025892961541 -999157.58738205757
 32293.469241032748 19064.724551595962 -999296.58666591567
 28463.17521664211 16236.950453540594 -999462.96034248103
 25071.028818887848 13475.71595428308 -999594.84222032758
 22417.309697022152 11155.111988433428 -999686.46469904447
 20398.799293500302 9235.1271987923938 -999749.26927355421
 18876.468317060189 7687.8806108247491 -999792.26614111627
 17699.048965476875 6482.1754799691435 -999822.34675304417
 16747.943486827502 5569.036239320084 -999844.23398063704
 15959.20896526383 4919.6636847722029 -999860.54055474733
 15283.378756104117 4507.9687376868033 -999873.04021643521
 14664.742889790261 4315.2110069175114 -999883.1553086302
 14042.436002385508 4337.5653214598533 -999891.99192622839
 13356.861825461048 4587.181851804743 -999900.27102948306
 12554.478111405793 5086.4826101235185 -999908.25217817212
 11583.098995692095 5858.6801350034229 -999915.75029335939
 10363.348101682428 6929.6902007034787 -999922.2871852821
 8752.1423446255048 8357.8083537295188 -999926.77084069606
 6589.5593397451003 10186.741559106769 -999926.4012936732
 3728.8162016254514 12444.270312943509 -999915.61447259807
 54.712526848405929 15177.824512372412 -999884.80869028682
 -4076.1934949605316 17990.745062828919 -999829.84439287253
 -7328.0156055124153 19801.249226002885 -999777.08051163855
 0 -0 -0
 -0 0 -0
 0 0 0
 0 0 -0
 0 -0 0
 -0 0 0
 -0 0 0
 0 -0 0
 -0 -0 -0
 -0 -0 -0
 0 0 0
 36102.789759165717 19689.31881326632 -999154.10187631985
 33113.653367191313 17414.860619655152 -999299.85919656535
 29219.981413990787 14243.349323512311 -999471.52019765647
 25630.11790562719 11275.771688792031 -999607.90014333406
 22742.745730358816 8800.401239322824 -999702.6160087164
 20554.68315208811 6822.5928102066964 -999765.45110734017
 18928.375353719555 5250.9541994030851 -999807.05342904269
 17721.550686515387 4010.1171141301747 -999834.91917515884
 16811.554563231668 3044.8041053427196 -999854.03974836622
 16105.016952090795 2311.1319608282583 -999867.63478874147
 15538.351106383494 1779.4347867898377 -999877.68914839497
 15062.916201464019 1429.0486542281242 -999885.5266356502
 14633.810392539581 1247.9569591385459 -999892.14128166006
 14206.30870681665 1234.2734405163403 -999898.32351194625
 13735.459835678699 1396.20712756425 -999904.68933231791
 13174.77028149646 1750.2019096202907 -999911.67721019499
 12470.247937483728 2319.3136520239573 -999919.55361446994
 11547.353093665717 3136.4398748110016 -999928.40812802291
 10298.691360767269 4252.7751043711478 -999937.92350333789
 8590.9670212553392 5732.172531025044 -999946.66731966997
 6273.5364524547867 7655.1696226151198 -999951.01935966278
 3205.6360941410189 10113.366214800875 -999943.720276815
 -602.24888188192415 13078.376375666841 -999914.29301098653
 -4744.5399482781122 16204.787188329121 -999857.43694431754
 -7991.5289505270284 18317.676918508481 -999800.27914446103
 0 -0 0
 0 0 0
 0 -0 -0
 0 -0 0
 0 -0 -0
 -0 -0 0
 0 -0 -0
 0 -0 0
 0 0 -0
 37264.531665318354 18726.05472919414 -999129.9662977003
 34044.750434897302 16356.91158900017 -999286.44862776715
 29963.358985864357 13034.95368582855 -999466.00097286573
 26201.743056779298 9907.3854372510505 -999607.57919024606
 23132.162189938757 7312.7668998889767 -999705.66994125128
 20774.324296919578 5252.3380325329936 -999770.39383810444
 19020.977166839104 3637.588466525387 -999812.4676046836
 17735.74233701537 2370.1054264427153 -999839.90020603919
 16796.403384959569 1373.624019696849 -999857.98691133258
 16104.709296589401 594.34000568619206 -999870.1341166409
 15586.410910239143 -5.3988617223907598 -999878.52450474666
 15187.234199036895 -450.53169299382654 -999884.5658067622
 14865.101708445613 -756.73027975940795 -999889.22191934905
 14583.431586375471 -931.93395374257989 -999893.22181034496
 14307.226658697416 -976.71562920213455 -999897.16935888783
 14000.655617732369 -884.59672836525408 -999901.59472365188
 13624.285313714683 -642.40605213173751 -999906.97875560133
 13130.432228753501 -229.81755197243527 -999913.76574851631
 12456.266197366347 383.22337003528634 -999922.34427092818
 11517.369081668152 1240.7344348262445 -999932.90314275527
 10205.993115140542 2402.9585090777546 -999945.0302366314
 8392.0023338870851 3950.168274185638 -999956.98430854199
 5933.9851243814737 5978.6653366095907 -999964.52106129064
 2723.3536637153175 8560.5811998249937 -999959.6490830736
 -1224.7920325724278 11658.137346742324 -999931.29149861145
 -5546.2145142898826 14883.412932455112 -999873.85380559054
 -9041.0293605847273 17031.210329374313 -999814.08154857345
 0 -0 0
 0 -0 0
 0 0 -0
 0 0 -0
 0 0 -0
 0 -0 0
 -0 0 -0
 39341.052932100145 17571.595353831239 -999071.32908061938
 35575.300106955292 15414.163883189185 -999248.11812386313
 31054.893309215076 12175.528492470228 -999443.52021886769
 26965.190797537187 9038.1728582219894 -999595.51315351413
 23647.499132244844 6393.3668603203814 -999699.91529707541
 21092.754034270332 4280.5402423524456 -999768.35952258622
 19184.960228272579 2623.7959114582368 -999812.50892157527
 17788.110774285651 1327.162678369577 -999840.89822046517
 16777.788240337628 306.31425790956888 -999859.19608379737
 16052.18017452208 -502.15479327936191 -999871.02935939084
 15532.450741851453 -1142.5779026918935 -999878.71138938039
 15159.303657938213 -1644.8844340650803 -999883.73817549658
 14888.272842579703 -2028.3080771321174 -999887.10627655825
 14684.42712036024 -2304.1777411265007 -999889.52307996689
 14517.782853593428 -2477.5514819178447 -999891.54197826388
 14359.940277097669 -2548.0088897014707 -999893.64422719285
 14181.455021398555 -2509.9847497337701 -999896.28777690348
 13949.133635704924 -2352.6893340713809 -999899.93825567875
 13622.576682033812 -2059.2976420701016 -999905.08784472302
 13149.826104145446 -1605.0532839325992 -999912.24908858223
 12462.856761813347 -954.45863289886643 -999921.88005366328
 11473.924883549667 -58.36345885072479 -999934.17065398523
 10072.787595211976 1149.0278326772495 -999948.60802198306
 8127.2945242114311 2749.3483758158909 -999963.19340625009
 5493.5982545107681 4826.8972036905816 -999973.26036329742
 2045.1758918242363 7433.7786818191353 -999970.27765333152
 -2240.4736290174615 10494.224428493224 -999942.42410828953
 -7033.3029586780949 13573.307896722812 -999883.14215323795
 -11126.095811881405 15441.229126817778 -999818.87281399034
 0 0 0
 0 0 0
 -0 0 0
 0 -0 0
 -0 0 -0
 42769.713894040804 15489.296110449728 -998964.880903941
 38245.27440233864 14138.256989484009 -999168.35852382216
 32928.891095647072 11327.630408952195 -999393.50254068046
 28224.349260315459 8374.8970364767956 -999566.52965596062
 24469.739951636508 5791.9383835026674 -999683.79264468467
 21607.533663559148 3685.6127608215343 -999759.73651050578
 19479.728054995914 2015.6868051030169 -999808.22021106002
 17924.654549446226 701.47707931969933 -999839.09439928923
 16803.662628684808 -336.83683297350507 -999858.7517560717
 16005.765341265989 -1164.6685188289684 -999871.2212195535
 15445.588738560728 -1830.4896430677766 -999879.03423173446
 15058.934503915378 -2368.0168160774488 -999883.80374319782
 14797.881996123593 -2799.6043711944558 -999886.58602053125
 14626.153114727744 -3139.1848451266592 -999888.1043214649
 14514.925934368493 -3394.4535813193238 -999888.89113241201
 14439.342183724382 -3568.279833348699 -999889.38026980381
 14375.737801067844 -3659.482493763795 -999889.96712165931
 14299.318933773633 -3663.134175724746 -999891.04952791776
 14181.863648681863 -3570.4108555189473 -999893.05773656256
 13989.082458461684 -3367.8957281711419 -999896.47606656479
 13677.447580208407 -3036.2237842280656 -999901.84956965793
 13190.541130416961 -2548.1314748783711 -999909.75425318931
 12454.987995709611 -1866.157961867862 -999920.69221938204
 11375.855074149044 -940.3912518926719 -999934.85067059519
 9832.0032603831296 292.06454422903329 -999951.62203488103
 7673.0949826814322 1902.505316800238 -999968.75155522057
 4722.7435111230361 3955.2003814567506 -999981.02586182638
 804.90228859927311 6464.6551116524497 -999978.7799581514
 -4155.6520912339593 9288.1093659417274 -999948.22944995679
 -9824.4047316214564 11874.284321866362 -999881.23416909494
 -14740.887618263652 12880.804445143453 -999808.37719488586
 0 0 0
 -0 -0 -0
 0 -0 -0
 0 0 -0
 41018.867649049236 12503.872394043743 -999080.1297553383
 35789.048215600516 10379.501731071618 -999305.46379554842
 30299.525578965906 7763.7669030940287 -999510.71163502987
 25849.894689756733 5341.3998746736843 -999651.56549265061
 22486.126894939935 3305.3481034762917 -999741.69102382625
 20011.012644287079 1661.1273270806964 -999798.37968910171
 18215.538854114482 352.2554864193807 -999834.0212556913
 16927.240937558006 -689.7045884969649 -999856.48611279333
 16013.721077347363 -1526.1107257955287 -999870.60749044386
 15376.154704070479 -2205.4914761015689 -999879.34755842679
 14941.765205119027 -2763.3368762881264 -999884.54714625096
 14657.180673494726 -3224.082308495354 -999887.37983233505
 14482.954716776114 -3603.5994453240032 -999888.62284441921
 14389.131590132407 -3911.3825604612525 -999888.82080886757
 14351.666807691814 -4152.2142044562879 -999888.38815991918
 14349.566487343305 -4327.2884361465221 -999887.67594986188
 14362.593865281409 -4434.8717629571938 -999887.01752243342
 14369.310052980543 -4470.5637838016355 -999886.76208261505
 14345.178722059216 -4427.1873392002926 -999887.30157938099
 14260.464852425101 -4294.2716886875451 -999889.09303625091
 14077.702732078978 -4057.1039077562782 -999892.67333732813
 13748.525253281119 -3695.3580946885841 -999898.65605565847
 13209.58977059165 -3181.4132273183159 -999907.6884132704
 12377.206541223262 -2478.6143739268696 -999920.32744065218
 11140.364977485711 -1540.2522633920505 -999936.75794578798
 9352.3246655894309 -310.81686696413135 -999956.21774966945
 6822.8980093754517 1267.4007300943997 -999975.92058916239
 3321.4213158913503 3234.962137891795 -999989.25153243961
 -1372.1090703465438 5566.5818076403093 -999983.56510678597
 -7222.0450761642724 8053.9440225073486 -999941.48631337436
 -12888.212689826822 10036.952184942749 -999866.56788018427
 -0 0 -0
 -0 -0 -0
 0 0 -0
 44917.963400143301 10689.149335336198 -998933.49060408946
 39783.777296274391 9558.5312380928026 -999162.59214634867
 33483.834610228136 7264.1516728981414 -999412.86009349918
 28068.925271116623 4998.9807106765556 -999593.49018787569
 23944.481920548689 3053.2814605365038 -999708.6271798797
 20930.402872511746 1459.242796139243 -999779.87019446236
 18764.089009823041 176.58071380607737 -999823.92338995519
 17221.082655345257 -852.85251182023922 -999851.34242784861
 16131.463542322508 -1684.9063918306467 -999868.45983580931
 15371.785753667786 -2365.9715991194721 -999879.04787585954
 14853.655890470331 -2931.4790338023417 -999885.38109993492
 14513.962015977871 -3406.8025665520368 -999888.8631257331
 14307.370561822741 -3809.0499414078745 -999890.38913580438
 14200.708705689527 -4148.9585112442355 -999890.5570188812
 14168.754644293173 -4432.5373318541106 -999889.79342957179
 14191.044438070121 -4662.3261109361883 -999888.432262816
 14249.417671582572 -4838.2766773596713 -999886.76617645752
 14326.072802494877 -4958.2842775115123 -999885.08292457322
 14401.919222064262 -5018.4166460833703 -999883.69334492472
 14455.000831953375 -5012.8470121344744 -999882.95530816074
 14458.765683822503 -4933.4944463103348 -999883.29555376037
 14379.931646200323 -4769.348552845956 -999885.22885390813
 14175.658652763395 -4505.4863690735174 -999889.3695276184
 13789.629161746017 -4121.8072958605144 -999896.42305200663
 13146.505372745789 -3591.6093380731286 -999907.13055705687
 12144.141610215735 -2880.3141585395019 -999922.1087739279
 10643.132364755475 -1945.0047274932022 -999941.46863207768
 8454.5744959319018 -736.11471294067223 -999963.9885041971
 5332.2062454289189 795.68099795546163 -999985.46712855063
 993.61007930067524 2680.0842323920706 -999995.91493541491
 -4740.1497281888596 4871.9869265314928 -999976.89709509874
 -11398.81868409006 7050.2804860500592 -999910.17620468047
 -16804.942227603242 7908.9122152300251 -999827.50663516868
 -0 -0 0
 0 0 -0
 43432.088286882688 8279.8708044494779 -999022.07055024663
 37650.723388242463 6779.1599572055502 -999267.96507174021
 31324.961754987336 4760.3504055144322 -999497.91687379987
 26211.012998767932 2901.5048856208118 -999652.22155856621
 22424.299689928892 1355.6921704025292 -999747.62459440506
 19707.640627119792 106.29324705026832 -999805.77994061331
 17783.493034859275 -899.55883488189647 -999841.45651667286
 16430.694049120288 -1715.3865356106774 -999863.53555977694
 15487.93538206166 -2386.3136676457343 -999877.20714329754
 14841.340380657171 -2947.409234911584 -999885.51714409154
 14411.387939828059 -3424.3838393298188 -999890.28672798339
 14142.504620485764 -3835.0673684698204 -999892.63514706353
 13995.405918162776 -4191.0436809460534 -999893.27618803899
 13941.580453209308 -4499.1676751004306 -999892.68915453996
 13959.306942277859 -4762.8235245995511 -999891.22071441601
 14030.742617768274 -4982.8969185036012 -999889.14835590322
 14139.746856786302 -5158.4584080850227 -999886.72251694498
 14270.19443819317 -5287.1940447906991 -999884.19685973064
 14404.565013829975 -5365.5955300788883 -999881.85246626497
 14522.612877893491 -5388.9323442549894 -999880.01936401764
 14599.901084488236 -5350.9943307006424 -999879.09756529867
 14605.955980939823 -5243.6046066536228 -999879.57807958673
 14501.720297183305 -5055.8808143009028 -999882.06213413691
 14235.878244788344 -4773.2470569703519 -999887.27158771898
 13739.468689824582 -4376.2049081563282 -999896.03251074231
 12918.083976845539 -3838.9480451865329 -999909.1886687876
 11641.03038757775 -3128.0162866261558 -999927.34832367988
 9727.7849902185808 -2201.5397216901661 -999950.26047400886
 6935.9631830398503 -1010.7642323322317 -999975.43508347741
 2968.382823040728 490.19249206874053 -999995.47419712669
 -2439.0020330778643 2304.0983040556016 -999994.37118420214
 -9143.8486699600799 4246.57143305103 -999949.17703979579
 -15313.29800021729 5621.7001737842565 -999866.94084338692
 0 0 0
 -0 -0 0
 41480.15391693377 6374.2723563744803 -999118.99465626932
 35569.188676618425 4645.5735484773786 -999356.41863315844
 29484.434095903925 2842.3623815455353 -999561.19828759646
 24705.074561931582 1320.1755711059675 -999693.91136855027
 21219.258749516495 95.548865451282211 -999774.84161611879
 18744.147111453094 -884.03375519411304 -999823.92221499863
 17006.41808127677 -1675.3499466795686 -999853.97681191459
 15795.323897482769 -2325.5103851853369 -999872.54174940835
 14959.989009666144 -2870.5657640390973 -999883.97255932912
 14395.574913267272 -3336.8685957967186 -999890.81040426157
 14030.000073362144 -3742.8650109301147 -999894.56947192759
 13813.622621946855 -4100.7828097421389 -999896.1783157317
 13711.75896614233 -4418.1118445113943 -999896.22859263956
 13699.373804508628 -4698.8369686569604 -999895.11854419322
 13757.317182688939 -4944.4310621966288 -999893.13870303461
 13869.627083071804 -5154.6065913883831 -999890.52574542596
 14021.558635221909 -5327.8563296223037 -999887.4985919015
 14198.084534712316 -5461.7914971460923 -999884.28491960338
 14382.668067884943 -5553.3051627641989 -999881.14276698814
 14556.116944730195 -5598.5579286556258 -999878.38040864305
 14695.321760608715 -5592.7964644429012 -999876.37643163628
 14771.632890995148 -5529.9847949580226 -999875.6013274357
 14748.56439265271 -5402.2402187290818 -999876.64021566941
 14578.392040704852 -5199.0373753607573 -999880.21307348495
 14197.077442772532 -4906.1545330599474 -999887.17995570973
 13516.809519843046 -4504.3148976163438 -999898.49835256138
 12415.504795941408 -3967.5047924897112 -999915.05346523493
 10723.321592310522 -3261.0441568688757 -999937.1860097188
 8209.2040329549636 -2340.0167011356134 -999963.56598177284
 4580.5228739121058 -1150.7136989609485 -999988.84727190051
 -456.76838680415631 354.7753439779126 -999999.83274853416
 -6899.7629878185953 2154.1047782372634 -999973.8762104318
 -13198.13905189612 3888.5631014750529 -999905.33962099266
 -0 0 -0
 46681.625776964247 5710.4968706293976 -998893.49584443169
 40964.501551371606 4591.4029101932392 -999150.05311112502
 34017.589127925799 2832.1155478819801 -999417.2215603689
 28041.164316151837 1304.4050953309602 -999605.91816532449
 23526.239769976681 94.602482817964145 -999723.21524142649
 20277.971837476765 -857.04100026308322 -999794.01345421281
 17987.926921717892 -1616.1075814702908 -999836.89803954714
 16388.820646037304 -2234.8598111889287 -999863.19662214618
 15280.59074719039 -2751.9732299713119 -999879.4578296718
 14521.999234452789 -3195.1173071946068 -999889.44527064008
 14015.954736469208 -3583.4991192764037 -999895.35029766359
 13696.405537879449 -3929.9105219146363 -999898.47698585468
 13518.333014170767 -4242.3355437723076 -999899.62359311455
 13450.541983058334 -4525.2099997714331 -999899.29762692575
 13470.578404078087 -4780.4208175181748 -999897.84032883437
 13561.156168742244 -5008.0792095722354 -999895.50163304457
 13707.629830755666 -5207.1105702203322 -999892.4876625149
 13896.173348279248 -5375.6703220672252 -999888.99310616625
 14112.423566674948 -5511.41505078716 -999885.22531599249
 14340.388674613498 -5611.6283721657073 -999881.42440975166
 14561.447356143395 -5673.2200185901002 -999877.88195634924
 14753.242361983503 -5692.5863339953912 -999874.96033285989
 14888.240386091946 -5665.3355643597997 -999873.11408555682
 14931.647643773307 -5585.849523130848 -999872.91401645006
 14838.272896100347 -5446.6608710553992 -999875.07196790155
 14547.783130335873 -5237.5875318944336 -999880.45769623818
 13977.67793518343 -4944.5596996157828 -999890.08188346238
 13013.308889272665 -4548.0308084140624 -999904.98008936725
 11494.827052331146 -4020.8778012026851 -999925.84799711255
 9203.168527253285 -3325.8168976907632 -999952.11916922405
 5854.4824119618024 -2413.0544007064173 -999979.9509010904
 1135.0189045592776 -1221.9669814211211 -999998.60926342441
 -5121.4252067694006 292.69079183201006 -999986.84258141718
 -12327.61830108444 1988.8717823155293 -999922.03406868479
 -18167.137610530044 2824.6494455785542 -999830.97394837171
 46041.825110743877 3056.9437798491308 -998934.83542981837
 39779.5795965133 2240.6847589768117 -999205.96694522176
 32723.594829757709 1058.7895776827552 -999463.8789401286
 26932.898036345101 -20.182970764968093 -999637.2435018674
 22631.207336997872 -898.08417209038146 -999743.47804788884
 19559.257660150492 -1599.7274170852666 -999807.41961238463
 17402.378246743025 -2168.4909759832594 -999846.21561430348
 15900.762102896422 -2641.6198901885477 -999870.08536554535
 14863.461487989292 -3046.7973325347521 -999884.89064422285
 14157.042822930382 -3403.4071355453007 -999893.99186032685
 13690.523226091782 -3724.4130391834733 -999899.34409484896
 13402.499244121351 -4017.9869529961079 -999902.10960616416
 13251.442706570684 -4288.77935795549 -999902.99811422371
 13208.744395517466 -4538.907372643821 -999902.45893854916
 13253.822916063576 -4768.7158759746999 -999900.79284247197
 13370.70535940123 -4977.3712352762159 -999898.21982728748
 13545.624079538893 -5163.3030824834941 -999894.92266416375
 13765.309022425627 -5324.5257160936089 -999891.07691458846
 14015.7330915598 -5458.8382964278426 -999886.87375640613
 14281.126527805904 -5563.9255186584614 -999882.5391804378
 14543.082899921528 -5637.3512810033317 -999878.352106045
 14779.576970150081 -5676.4588018480508 -999874.6631053586
 14963.664227884958 -5678.1609315616943 -999871.91541782522
 15061.571924713046 -5638.6195733701197 -999870.66914699704
 15029.777778242335 -5552.7799960746261 -999871.6279674368
 14810.550820094599 -5413.7313777970467 -999875.6618184956
 14325.286425831922 -5211.8284859214536 -999883.80475565803
 13464.952489567688 -4933.5207305177519 -999897.17242707289
 12077.356091123613 -4559.8716720529401 -999916.66904806753
 9952.6969922316985 -4065.0503291444816 -999942.2079242391
 6814.5495674535696 -3416.1550967245498 -999970.94547719136
 2340.4803106978766 -2579.690484285833 -999993.9336560599
 -3713.6183753002229 -1553.6049192643591 -999991.89764233446
 -11070.211995346137 -478.4665466095642 -999938.60885363456
 -17600.602597807338 174.73955025338145 -999845.08212736831
 45338.976848440427 658.84715354563571 -998971.44258420367
 38874.078654465149 197.61215797612184 -999244.09778502129
 31819.109595302874 -481.6124609579457 -999493.52790000581
 26154.386478101198 -1148.360813665382 -999657.25593094924
 21991.423382993038 -1721.3985262061049 -999756.67743941769
 19033.925314859916 -2198.0754729934811 -999816.42222526215
 16962.66354535921 -2598.369583686057 -999852.7474188155
 15522.682176873586 -2943.4014840302989 -999875.18357329967
 14529.355691171475 -3249.7505613418798 -999889.1623297499
 13854.792051974271 -3528.9850753727305 -999897.79027735326
 13412.378957315344 -3788.5189636270588 -999902.87289054622
 13144.033312377998 -4032.6004700343333 -999905.48179402039
 13010.705737355289 -4263.1638519107628 -999906.26909235236
 12985.600540423206 -4480.5056276862006 -999905.64517254592
 13049.423288831214 -4683.824718581076 -999903.88254963513
 13187.064833488657 -4871.6380542846809 -999901.17934911232
 13385.287412402195 -5042.1019943269721 -999897.70041158027
 13631.091991613981 -5193.2360324929996 -999893.60615548841
 13910.540214708753 -5323.0698518882555 -999889.07474693772
 14207.841562690966 -5429.7060171644716 -999884.32107454166
 14504.54267688443 -5511.3163358572065 -999879.61457066471
 14778.632911375793 -5566.0621689062218 -999875.29770527023
 15003.351841823449 -5591.9511973636572 -999871.80654087698
 15145.404737872699 -5586.6143380312515 -999869.69473805127
 15162.202238462683 -5547.0025599352657 -999869.66069877334
 14997.597133911115 -5468.9734167151128 -999872.57308617875
 14575.460083027512 -5346.752185676608 -999879.47683930048
 13790.353835549948 -5172.2500303991183 -999891.53110260586
 12494.829605043944 -4934.3364787311566 -999909.76170685294
 10484.175726398456 -4618.4988931746702 -999934.37361024448
 7483.9931741407927 -4208.3842668435955 -999963.13899464894
 3160.2684516880981 -3693.3701047093773 -999988.18579050375
 -2782.500619826058 -3091.266977771475 -999991.35084198241
 -10190.435171579009 -2495.1397796277242 -999944.96313971898
 -16971.808174401918 -2104.1487005880836 -999853.75444888789
 44831.29471416989 -1188.218260153983 -998993.8654224145
 38308.399925975216 -1427.7155255189953 -999264.94390801562
 31268.540402805786 -1767.3738929625304 -999509.45706911676
 25669.456722094601 -2112.7950974842042 -999668.25251603767
 21578.57506419898 -2425.849666471438 -999764.21237789583
 18680.408532522073 -2702.3608154347576 -999821.85392352834
 16652.586640669309 -2949.9608658945285 -999856.98431778955
 15242.761349009063 -3177.6304767269567 -999878.77309752454
 14270.044506248925 -3392.3913288709077 -999892.42296902207
 13609.920587609846 -3598.8140004645952 -999900.9043897246
 13178.481617058116 -3799.34681806969 -999905.94186954631
 12919.72025058022 -3994.7993254413468 -999908.55702258891
 12796.139702894166 -4184.786093518941 -999909.36908004608
 12782.071973681841 -4368.1118513236788 -999908.76495554019
 12858.997168901473 -4543.0854579573534 -999906.99895856902
 13012.288357228166 -4707.780676167914 -999904.25399275776
 13228.945230824462 -4860.2313182090238 -999900.68164773902
 13496.011269623643 -4998.5762649383405 -999896.43059425591
 13799.440667908224 -5121.1420903609469 -999891.66880264739
 14123.238657381293 -5226.480762210359 -999886.60258484748
 14448.702846765756 -5313.353464452096 -999881.49460873974
 14753.592677623843 -5380.6792131528091 -999876.68229352555
 15011.003464227486 -5427.4405757763798 -999872.59821628942
 15187.665627927667 -5452.5623239367196 -999869.79371160013
 15241.277558542908 -5454.7524070014779 -999868.96598232409
 15116.359489021193 -5432.3133874120686 -999870.9845010303
 14737.952907561459 -5382.9086635530684 -999876.90094251826
 14002.397358503191 -5303.2940807553405 -999887.89768658963
 12764.557219652668 -5189.0526037835298 -999905.0653997414
 10821.936620785869 -5034.5510324642028 -999928.76695476542
 7900.0859169381138 -4833.7883107392936 -999957.11064678757
 3657.3098588922244 -4583.8195181550582 -999982.80619379703
 -2226.0599881381554 -4293.5800001215684 -999988.30484546744
 -9636.1477602277082 -3998.8332177143748 -999945.57551360747
 -16479.857663490799 -3772.8266600711599 -999857.07982210326
 44570.770450626085 -2765.2542228586376 -999002.4022946693
 38045.955683065447 -2843.8611331164502 -999271.94382210984