# OOMMF OVF 2.0
#
# Segment count: 1
#
# Begin: Segment
# Begin: Header
#
# Title: Oxs_TimeDriver::Magnetization
# Desc: Oxs vector field output
# Desc:  MIF source file: /mnt/gpfs/work/plgrid/groups/plggspinsym/MF/switching-obrazki/p-ap/Anisotropy.mif
# Desc:  Iteration: 52300, State id: 366250
# Desc:  Stage: 0, Stage iteration: 52300
# Desc:  Stage simulation time: 7.69847e-09 s
# Desc:  Total simulation time: 7.69847e-09 s
# meshunit: m
# meshtype: rectangular
# xbase: 1.0000000000000001e-09
# ybase: 1.0000000000000001e-09
# zbase: 3.4999999999999998e-10
# xnodes: 35
# ynodes: 35
# znodes: 5
# xstepsize: 2.0000000000000001e-09
# ystepsize: 2.0000000000000001e-09
# zstepsize: 6.9999999999999996e-10
# xmin: 0
# ymin: 0
# zmin: 0
# xmax: 7.0000000000000005e-08
# ymax: 7.0000000000000005e-08
# zmax: 3.4999999999999999e-09
# valuedim: 3
# valuelabels: Magnetization_x Magnetization_y Magnetization_z
# valueunits: A/m A/m A/m
#
# End: Header
#
# Begin: Data Text
 -0 0 -0
 0 0 -0
 -0 -0 0
 -0 0 0
 0 0 0
 -0 0 -0
 0 0 0
 0 -0 0
 -0 0 0
 0 0 0
 0 0 0
 -0 -0 0
 0 0 0
 19187.746574255703 31898.23565748777 -999306.92629609117
 16771.29467545815 31258.353200006575 -999370.62145639071
 14587.353546161132 30580.053685485578 -999425.86990387237
 12908.227866942729 30092.769082776671 -999463.75767321629
 11450.116385284997 29843.370841841574 -999489.00346705166
 9888.4765869249204 29848.388021125927 -999505.52362822404
 7908.1216184798959 30125.028155950837 -999514.85446243908
 5288.3834993301698 30649.444612847565 -999516.20524376084
 2526.7545807134466 31193.90868353812 -999510.15781348222
 0 0 0
 -0 0 -0
 -0 0 -0
 -0 0 0
 0 -0 0
 -0 0 0
 -0 -0 0
 0 0 0
 0 -0 0
 0 -0 -0
 0 -0 0
 -0 -0 0
 0 0 -0
 -0 -0 -0
 -0 -0 -0
 -0 -0 -0
 -0 0 -0
 0 0 -0
 0 0 -0
 -0 -0 0
 0 0 0
 0 0 -0
 0 0 0
 24252.276092370892 30110.688461906648 -999252.30725012068
 22140.641219093959 28521.010301581748 -999347.95941042691
 20438.091803872441 26433.415935357429 -999441.62357058388
 18584.107415297323 25852.685603672882 -999493.00627801009
 16308.895156959592 24710.874814230236 -999561.60020514729
 14399.951748699923 23869.86147243809 -999611.3600309483
 12905.181727941212 23356.146936868281 -999643.9099423514
 11591.433552276527 23132.264577430597 -999665.21246051323
 10199.101168929566 23202.827789009458 -999678.75195881771
 8489.2961446571808 23623.039345271147 -999684.89228509401
 6326.4375675656056 24484.471242027426 -999680.19228936499
 4028.2610495134827 25745.891172873307 -999660.40343740303
 2649.060448680943 26295.198180243147 -999650.71151447762
 727.78356504038481 27848.841704833838 -999611.88085515553
 -1879.4364121107735 28992.021025761835 -999577.87612352369
 -0 0 -0
 0 -0 0
 -0 0 -0
 0 -0 -0
 -0 0 0
 -0 0 0
 -0 0 -0
 -0 0 0
 -0 0 -0
 -0 0 0
 0 -0 -0
 -0 0 -0
 -0 0 0
 -0 0 0
 -0 -0 0
 0 0 -0
 0 -0 -0
 -0 -0 0
 29068.993301318125 27864.968117809447 -999188.93968070007
 26385.076942773114 25930.014671954748 -999315.4967545718
 23528.911728173425 24585.004787708887 -999420.81619930046
 20914.372316023757 22404.7074756734 -999530.19870014733
 18917.652492193953 20273.669027243519 -999615.47645500081
 17139.541594695373 18707.108727622035 -999678.08828491217
 15415.487878770997 17464.274631436314 -999728.64410551789
 13957.409272242674 16636.794856635261 -999764.17608519318
 12764.327797711914 16159.934372511936 -999787.94174412254
 11694.987978008536 15978.769500103181 -999803.93386976467
 10581.059265368987 16092.192144255998 -999814.52406774671
 9276.1592373084659 16551.87381506139 -999819.97796754108
 7714.8021168158284 17439.471176699506 -999818.15680321376
 6014.3809357069022 18761.663805701093 -999805.89475817862
 4356.8673096390103 20251.843500137067 -999785.41724816721
 2189.364134646401 22120.569260328277 -999752.91302415554
 -700.81679828558299 24110.388476695603 -999709.05668765353
 -3593.8746594691697 25230.991909785665 -999675.18780460907
 -6657.732494009555 26585.487036504644 -999624.37269059708
 -0 0 -0
 -0 -0 -0
 0 0 -0
 -0 0 0
 -0 0 -0
 0 0 -0
 0 -0 -0
 -0 -0 -0
 -0 -0 0
 0 0 0
 0 0 0
 0 0 -0
 -0 0 0
 0 0 0
 -0 -0 -0
 31328.339724116187 24098.863665934452 -999218.58464509179
 28050.165683813422 22888.066931618101 -999344.44742403214
 24493.414351196741 20347.841806329045 -999492.89041355648
 21513.086724973455 17999.081751245692 -999606.53266956762
 19127.056735759576 15837.297489477025 -999691.62030541035
 17303.857498704314 14007.274280983027 -999752.15567803686
 15820.900053385843 12595.019245006082 -999795.51139806514
 14544.774550574528 11551.020041782043 -999827.4968559664
 13477.20968027663 10856.611225205357 -999850.23819166981
 12582.114738143089 10459.474290358852 -999866.13593334856
 11771.094605896991 10320.958511283436 -999877.45206459542
 10940.687193525784 10438.310822603471 -999885.66497920337
 10001.055668673152 10842.53948234724 -999891.20319317037
 8900.5633149165478 11578.417875304438 -999893.35441945097
 7633.8025617234825 12658.698620808495 -999890.73523444368
 6154.3455224240788 14037.373770523285 -999882.53118494747
 4208.2754939816359 15777.294747634829 -999866.67480610276
 1621.8100492110759 17865.34567632337 -999839.08663145883
 -1574.6082415977889 20091.251165395788 -999796.91049507365
 -5430.2844946797513 22439.800137686245 -999733.44816510333
 -8743.6669473545353 23562.137839541942 -999684.13708968309
 -0 -0 -0
 0 -0 0
 -0 0 -0
 -0 -0 -0
 0 -0 -0
 0 -0 -0
 0 0 -0
 0 -0 -0
 -0 0 -0
 0 0 -0
 -0 0 0
 -0 0 0
 -0 0 -0
 32657.7729331017 21781.634874534342 -999229.21807223104
 29476.390408352665 19937.383989180926 -999366.62097958941
 25530.604766945416 17225.767987364165 -999525.6180496224
 22110.527067152896 14586.331755014846 -999649.12020105601
 19460.584663773738 12372.715204249815 -999734.0654209092
 17455.216945449585 10551.839812520966 -999791.96539978159
 15946.872967278119 9095.3789617308285 -999831.47146111983
 14775.547507624917 7980.0379516074081 -999858.99115332309
 13830.686624826241 7166.5415867140428 -999878.66903398442
 13059.083867288811 6621.7343380817829 -999892.80073561042
 12411.64944080331 6309.5442987322958 -999903.06560631224
 11826.044648698839 6205.5488170028229 -999910.81393884658
 11234.849445066937 6306.397308909307 -999917.00031099003
 10576.398486284206 6628.1574818501658 -999922.10062757134
 9800.4766143854995 7195.8219998761097 -999926.08267005254
 8859.1937604876421 8028.5576420268017 -999928.5259197792
 7668.8431515585999 9141.7746106345658 -999928.80586654018
 6073.7139034024149 10587.566382077455 -999925.50394393108
 3912.9500628010378 12417.111735567332 -999915.24848756671
 1050.4339269921272 14655.933596737887 -999892.04427226691
 -2603.7982241766349 17338.920087628456 -999846.2792274633
 -6617.2596394707953 20076.298609329941 -999776.55209002236
 -9623.2943424556925 21787.663197184578 -999716.30472769844
 0 -0 -0
 -0 0 -0
 0 0 0
 0 0 -0
 0 -0 0
 -0 0 0
 -0 0 0
 0 -0 0
 -0 -0 -0
 -0 -0 -0
 0 0 0
 33768.750688824097 20453.318974837803 -999220.36269274924
 30569.736746588507 18200.55532642797 -999366.91509227676
 26511.885302101397 15117.567483550034 -999534.18105190794
 22826.03134617256 12278.75330036943 -999664.04582258139
 19897.982694867438 9939.5567405495185 -999752.60714662599
 17698.973419107595 8089.4297025186597 -999810.63580409961
 16074.77989304434 6636.9968932138709 -999848.76442571508
 14874.949068344109 5509.4879922428881 -999874.18280115491
 13972.491919085829 4656.1291993366231 -999891.53908333986
 13275.661797538643 4036.8318852739117 -999903.72576171905
 12724.297200273544 3620.3442623528645 -999912.48885499022
 12269.951458953306 3381.1154792274219 -999919.00489455205
 11864.721912109464 3303.1366383621362 -999924.15595498879
 11460.406764381756 3383.1621980309574 -999928.60409648076
 11010.309473573881 3629.8253707660442 -999932.79646837979
 10468.150173854956 4059.6331292202058 -999936.96661879343
 9779.8467731051533 4693.6247224653252 -999941.16051098681
 8867.294288292509 5561.7147867147678 -999945.21770976833
 7616.9980082957891 6715.3312554142021 -999948.44150459662
 5893.1603143191824 8223.7611148336346 -999948.81889756513
 3549.5147876271658 10172.164136980586 -999941.96232658566
 464.56871772373336 12652.348297851471 -999919.84791704989
 -3300.0635063608452 15623.256247454481 -999872.50359487359
 -7266.6801867237145 18689.079668798164 -999798.93661685672
 -10209.123868218479 20672.235884475667 -999734.1808967921
 0 -0 0
 0 0 0
 0 -0 -0
 0 -0 0
 0 -0 -0
 -0 -0 0
 0 -0 -0
 0 -0 0
 0 0 -0
 35159.111049781131 19521.91358598537 -999191.03869086539
 31747.801066664382 17128.811225482539 -999349.12865996594
 27496.848685450324 13849.967057333541 -999525.93849528476
 23608.622766094366 10819.765851241988 -999662.72592210432
 20455.533907126774 8353.2082667043542 -999755.86772182898
 18050.837874466499 6431.2493268543903 -999816.38628506451
 16275.788101267703 4954.3228182873527 -999855.26622961531
 14983.88955296972 3821.2877133624665 -999880.43325893511
 14046.24181595568 2956.5453721669473 -999896.97565814736
 13360.699933209566 2307.9881382336171 -999908.07821921725
 12851.837526821784 1838.9086619699915 -999915.72079206607
 12465.355838837646 1522.9659568004702 -999921.1446301681
 12158.377414916302 1341.3304231300176 -999925.18454699032
 11892.407797829739 1282.8749914801178 -999928.4598752684
 11630.342219252181 1344.8826797156985 -999931.46086641389
 11334.960730760924 1532.6788451097807 -999934.58264067955
 10966.191551729889 1858.6044125746405 -999938.14220305078
 10475.494607756613 2342.1366321883179 -999942.38754476211
 9797.9169547921538 3013.2941458667074 -999947.45906059362
 8846.1761901946466 3918.5459492807772 -999953.19398682646
 7511.2338654419937 5123.663818569069 -999958.66386310814
 5665.9991223012485 6715.4213791237435 -999961.39903980645
 3181.5281831774009 8793.7683833144583 -999956.2728019862
 -21.460077014228336 11422.836658593884 -999934.75704274618
 -3879.0477839126434 14529.93949424779 -999886.91052867763
 -7969.4547128224685 17669.482791221828 -999812.12093546393
 -11110.383366561073 19639.007704061492 -999745.40196884528
 0 -0 0
 0 -0 0
 0 0 -0
 0 0 -0
 0 0 -0
 0 -0 0
 -0 0 -0
 37386.417643494577 18466.125484176115 -999130.25076082489
 33461.162898303075 16236.070604416425 -999308.13095302158
 28791.728813733062 12989.426224422419 -999501.03109415376
 24577.965196069526 9904.4167330600121 -999648.85142533854
 21161.766630290873 7355.5673165998296 -999749.00613230735
 18535.302517232019 5365.954458085429 -999813.80721279746
 16581.184946624795 3846.7242915887018 -999855.12301432469
 15158.64415551481 2693.6796389646652 -999881.47277433297
 14137.428971425858 1818.6477528744481 -999898.40765071171
 13410.587861559572 1156.8304805687585 -999909.40483448131
 12895.395309405119 663.3356246614901 -999916.6309076288
 12529.995770348574 307.33322123755926 -999921.44929103612
 12268.172185292435 67.627323841274404 -999924.7408569192
 12073.360024820664 -69.958376367606007 -999927.11188542971
 11913.857046135981 -113.47540158697723 -999929.02104780287
 11759.758385472536 -65.016245944843362 -999930.84953690821
 11580.663472137847 79.158818673336611 -999932.93873510649
 11342.955624806951 328.66174943183699 -999935.61259670532
 11005.940638191445 699.89526825436053 -999939.18785958283
 10517.121933845052 1218.4814224281154 -999943.9511538893
 9807.9239507466482 1922.7852585585338 -999950.05251493724
 8791.0325276009553 2866.9651777596555 -999957.24821502634
 7359.1917710888674 4122.8085141655019 -999964.42174030968
 5388.3381372835829 5776.1245450698088 -999968.80061197805
 2751.1525432175845 7908.0324515585207 -999964.94647683983
 -650.67208899941375 10551.720346873573 -999944.11735034187
 -4796.2909153908295 13590.135557800766 -999896.14651171421
 -9303.2140733098167 16530.517861833025 -999820.07990794315
 -12988.374073215484 18149.89493946221 -999750.91070357163
 0 0 0
 0 0 0
 -0 0 0
 0 -0 0
 -0 0 -0
 40921.312004925414 16498.95134592535 -999026.14121367224
 36234.072903505956 15043.301547574756 -999230.09914602351
 30797.7562766109 12177.251701615896 -999451.4559243595
 25996.108982771169 9230.9925439832186 -999619.42312782665
 22155.473732858365 6704.578895341554 -999732.05590573559
 19219.435967009977 4691.9639877610616 -999804.28022440849
 17033.858585626764 3141.9713239852508 -999849.97658542951
 15438.797043882483 1965.0497330777794 -999878.88372811675
 14294.231825421841 1074.9079284595584 -999897.25447641197
 13485.822107061716 401.921008551743 -999908.9813886059
 12924.186019734028 -105.11465323454772 -999916.47369499656
 12541.306164961425 -482.03776778291189 -999921.23853794974
 12286.02017879917 -753.40164188485721 -999924.24017729063
 12119.407109199314 -935.78527156490452 -999926.11940945289
 12010.467290896369 -1039.9243016272947 -999927.33097605687
 11932.608982247506 -1071.7669595922396 -999928.22950372857
 11861.006332624147 -1032.8685995547908 -999929.12234379549
 11770.405505884937 -920.44073737506699 -999930.30274268426
 11632.794022712678 -727.03983112366404 -999932.07245107868
 11414.567701218477 -439.66135252062571 -999934.75504259265
 11073.165671648299 -38.058960111426082 -999938.68989729753
 10553.449664659336 507.50743690059193 -999944.18201036449
 9783.9765104289399 1238.5053974945788 -999951.36877151369
 8673.0486084861132 2209.5792448396655 -999959.94719158404
 7105.0901008884475 3487.2200637620617 -999968.67800490884
 4939.0931556176592 5141.870834985597 -999974.58293854457
 2013.9500075979674 7227.6615493185882 -999971.85206079436
 -1820.8077292149524 9733.9039212132284 -999950.96668469999
 -6597.213535077447 12472.161042553462 -999900.45603174972
 -11921.262589987731 14833.788458325071 -999818.90471136535
 -16350.552327272591 15502.122251387495 -999746.13959959662
 0 0 0
 -0 -0 -0
 0 -0 -0
 0 0 -0
 39081.953483427227 13388.73167130185 -999146.30699220055
 33723.913364965141 11232.862772256196 -999368.06055691629
 28165.301595265482 8609.5301551359807 -999566.20179783751
 23660.040075111352 6216.6982199178701 -999700.73280301574
 20241.470804152203 4245.880291399717 -999786.10480454052
 17715.302240967212 2697.3979801716687 -999839.43316446955
 15877.918702922771 1508.7802582572531 -999872.79954992083
 14560.093122025521 605.81472590145006 -999893.81270052644
 13629.652720351281 -77.873755795705151 -999907.10893682553
 12985.681293490084 -594.91657803414546 -999915.50550814485
 12552.045533688753 -984.20505525284887 -999920.73560524278
 12271.616233058967 -1273.2430789230937 -999923.89024719794
 12101.35997187021 -1480.9618178973158 -999925.67915766884
 12008.209567216509 -1620.0749364927904 -999926.58643531916
 11965.642019332681 -1698.6979099971513 -999926.96625127352
 11950.93385507719 -1721.2661826643525 -999927.10355441412
 11942.986372561863 -1688.9372756191487 -999927.2536376752
 11920.432705247569 -1599.6249872847761 -999927.66962616832
 11859.708461869068 -1447.6964734771882 -999928.62319773599
 11732.805909713412 -1223.2665237669921 -999930.42002156191
 11504.561055311977 -911.05738463836462 -999933.40530725673
 11129.339943628165 -488.92206728123574 -999937.94744855596
 10546.909413905687 73.694126427394906 -999944.37708854116
 9677.0946448981304 816.90312004464261 -999952.8421423313
 8412.9455712776162 1790.1827943178175 -999963.00811198878
 6612.6695984574772 3049.1268964303617 -999973.48736151576
 4092.8818719694536 4645.9794656276081 -999980.83141267637
 634.27746794872098 6606.5750408505155 -999977.9751866156
 -3961.0490413223783 8877.6132484671689 -999952.74792037206
 -9614.9757373084631 11211.455024066061 -999890.92180988134
 -14945.038437419485 12947.068828639034 -999804.490505444
 -0 0 -0
 -0 -0 -0
 0 0 -0
 43238.402570340499 11544.143579282116 -998998.08472898789
 37855.534980375371 10358.029328070146 -999229.53804408142
 31425.895505967055 8057.1273684448934 -999473.60935155104
 25961.087312448628 5819.1567774909954 -999646.01702800498
 21804.870429173679 3925.4361039637292 -999754.53916296898
 18758.991331744837 2408.3877929521686 -999821.13395969686
 16561.696975795614 1227.1272751988881 -999862.09266674996
 14993.241200281194 321.17103920463404 -999887.54346050008
 13886.943479011587 -368.70029770054185 -999903.50377468986
 13119.943108655194 -892.61722488108558 -999913.53142525058
 12602.154141271365 -1289.7393130493376 -999919.75792235648
 12267.31620087458 -1589.0545272579031 -999923.49100265524
 12066.300619170379 -1811.218174350405 -999925.5591683276
 11962.127798877322 -1970.5304985122013 -999926.50955361617
 11926.211470058823 -2076.5994183115586 -999926.72392272193
 11935.471729603782 -2135.5274136915891 -999926.48931671819
 11970.09831630022 -2150.6348790716129 -999926.04302314029
 12011.746514474988 -2122.800943698951 -999925.60306346056
 12041.95003713973 -2050.5045009892719 -999925.39065201976
 12040.496414634907 -1929.5938602419624 -999925.64879276068
 11983.548338414748 -1752.7844353269886 -999926.65846848197
 11841.275017440421 -1508.880925401734 -999928.75120396167
 11574.742517238486 -1181.7775597541622 -999932.31207790226
 11131.66957152885 -749.34737091079398 -999937.76026864199
 10440.52584522812 -182.43366337602157 -999945.47958277888
 9402.3604286276513 555.66844519905453 -999955.64244167809
 7880.0636328777236 1508.5270439795363 -999967.81395367894
 5686.3545520444923 2723.347991960075 -999980.12417628744
 2577.8732428128569 4242.2758531197642 -999987.67875665845
 -1716.6975740354715 6081.4569281088652 -999980.03421621921
 -7336.7254738108813 8176.1977236990379 -999939.65930455271
 -13703.436299848363 10182.241521397282 -999854.25827526278
 -18586.374678763645 10799.387925309471 -999768.93325244891
 -0 -0 0
 0 0 -0
 41649.100459762536 9029.673210877063 -999091.49602656369
 35688.443083358972 7505.6048948634007 -999334.77920336986
 29287.788050196054 5501.6289837698587 -999555.88015360688
 24148.355887544574 3689.6544822349324 -999701.57715076674
 20347.846471526467 2211.9075451873991 -999790.51436237514
 17617.316495744537 1050.2619973443934 -999844.25142580364
 15679.849295467473 152.39958576565584 -999877.05199211254
 14317.833679221165 -535.69395066081711 -999897.35106696084
 13372.370779521076 -1060.9760197870769 -999910.02296687686
 12729.748445758645 -1461.2811199348082 -999917.90571126214
 12308.555017448705 -1765.6139181981828 -999922.68805186835
 12049.924666185439 -1995.3723401096081 -999925.40612025815
 11910.602448574002 -2165.8555192753638 -999926.72062465735
 11858.074726257544 -2287.70459269702 -999927.07357660972
 11867.099015699521 -2368.0861693752126 -999926.77938379371
 11917.182609576023 -2411.5530493699362 -999926.07985317602
 11990.678484244516 -2420.5872273752248 -999925.17939441965
 12071.269683849436 -2395.8725359182467 -999924.26925393275
 12142.6140290165 -2336.3380566102419 -999923.54630192975
 12186.955180850142 -2239.0024522660779 -999923.22954886837
 12183.472849681155 -2098.6227806313309 -999923.57646559447
 12106.14550500483 -1907.1564712261786 -999924.89917753614
 11920.803156439531 -1653.0447398771055 -999927.57832514716
 11580.956647764962 -1320.3520824962909 -999932.06674928719
 11021.812449924502 -887.8071893729358 -999938.86385554238
 10151.806985318206 -327.84753803991299 -999948.41533497337
 8841.1579574555017 394.13909883697454 -999960.83852336055
 6908.2019113238293 1319.8469517017481 -999975.26706932951
 4108.9351589397866 2495.6420456978717 -999988.44414455083
 150.47491654242845 3961.3805781979768 -999992.14237973595
 -5203.3622204589446 5706.3230525411755 -999970.18100482516
 -11729.632491568551 7515.9358338478814 -999902.95850655145
 -17511.421032850172 8677.7761186194493 -999809.00492796383
 0 0 0
 -0 -0 0
 39679.85880711249 6981.189682181036 -999188.05627152568
 33625.005698209774 5283.0878201213081 -999420.55610982934
 27492.758983198684 3531.4529512207491 -999615.764703391
 22704.146380964874 2075.36384920613 -999740.07352011511
 19218.18575795451 930.91682259342485 -999814.88023035659
 16744.117212245648 47.292801931717086 -999859.80632395321
 15009.059501088414 -630.61878454271687 -999887.15885985945
 13804.527919212467 -1149.5139633365943 -999904.0522102986
 12980.871937340311 -1546.451195967373 -999914.54907529207
 12432.578505300698 -1849.9279179391244 -999921.00125880342
 12085.11949699843 -2081.3119375695242 -999924.8061866262
 11885.170828945675 -2256.2408687130878 -999926.82336834504
 11793.787036961394 -2385.8904922049546 -999927.60443638416
 11781.714943647323 -2478.052631394286 -999927.52259758441
 11826.169680666302 -2537.9891051063605 -999926.84748534812
 11908.559586185456 -2569.0499334284686 -999925.79034197424
 12012.824016041724 -2573.0739423463806 -999924.53282717639
 12124.11396389551 -2550.5958341315413 -999923.24721524562
 12227.621069120474 -2500.8909057023338 -999922.11238059332
 12307.347315289418 -2421.8709527025821 -999921.32877699379
 12344.627858338512 -2309.8428003269255 -999921.13428473775
 12316.153075413853 -2159.1225166956228 -999921.82222580852
 12191.192585857274 -1961.5022972907675 -999923.76075982535
 11927.582527930213 -1705.5466717489405 -999927.40930809057
 11465.927702836925 -1375.6919188768725 -999933.31776356848
 10721.341803362304 -951.09250327937673 -999942.07244869228
 9572.2120359058863 -404.17075417308314 -999954.10364813299
 7846.4167708506766 301.06424455528105 -999969.17107687797
 5308.9683045944985 1210.1982662495004 -999985.1750279587
 1666.238023754627 2375.8296400167455 -999995.78953332081
 -3362.0239878805405 3839.449413503969 -999986.97762666189
 -9721.4400088218772 5560.7002027495264 -999937.28414206556
 -15765.097258056543 7164.4757206838767 -999850.0547562578
 -0 0 -0
 45283.00551334276 6362.9121671728199 -998953.9342534428
 39255.832828858409 5177.7464910150256 -999215.77776283515
 32143.870182594903 3434.63800290055 -999477.35085467203
 26118.58091089526 1962.9048321176037 -999656.92451751744
 21600.269690821544 825.49110652547063 -999766.34615979984
 18362.172003418142 -40.521266089759983 -999831.40028574038
 16086.607073725323 -699.36694458988529 -999870.35757578723
 14505.347151243966 -1201.8174259420905 -999894.0696588296
 13419.134208042276 -1586.0793862205555 -999908.70142692886
 12686.681074965081 -1880.5883765541323 -999917.75237299385
 12209.237579083027 -2106.3965626843387 -999923.24586002994
 11917.582400153593 -2278.9573936904308 -999926.38608196215
 11762.495476146159 -2409.4677975182194 -999927.91648453672
 11708.151470872303 -2505.904478983985 -999928.31724673009
 11727.64552584477 -2573.8314605633709 -999927.91626298393
 11799.957235346814 -2617.0118143265295 -999926.95346130559
 11907.864775604743 -2637.8483252749729 -999925.61949011951
 12036.43957014399 -2637.669502488026 -999924.08052915195
 12171.87777841953 -2616.8847274861982 -999922.49564937304
 12300.449180480005 -2575.0216078105327 -999921.03098878649
 12407.39413742073 -2510.6611128157433 -999919.87336560898
 12475.560445378072 -2421.2682112419711 -999919.24566528026
 12483.56513916316 -2302.9166530530483 -999919.42534201476
 12403.166019715394 -2149.8835654299451 -999920.76659770543
 12195.454293769286 -1954.0842673178888 -999923.72331555595
 11805.324548626862 -1704.2794985671965 -999928.86234156298
 11153.612444248347 -1384.9653300829993 -999936.83740548219
 10126.36201136435 -974.80766176937209 -999948.25193228747
 8561.4708086416158 -444.50769866718099 -999963.25114000996
 6235.6461612915136 245.82055675199456 -999980.52795502229
 2862.9540823810426 1148.7878696932057 -999995.24187885644
 -1858.7714450815415 2326.9468846479103 -999995.56513362157
 -8041.9657808788006 3822.65800930462 -999960.35625024827
 -14953.392496182043 5469.7477164748043 -999873.23092118674
 -20176.906982787132 6181.2147189585867 -999777.31771090208
 44534.365478108681 3710.6239286539749 -999000.9617420407
 38049.209977970866 2850.1327031246242 -999271.80204568314
 30889.104389302502 1667.8194250339734 -999521.42628779716
 25074.046176509375 631.34840088139754 -999685.39731634315
 20782.773653057327 -179.18762124561457 -999783.99877727684
 17733.985086092398 -796.13965736998819 -999842.42355213757
 15605.878332325274 -1264.4590582187791 -999877.42133961956
 14137.42400960132 -1621.3368552933107 -999898.74712851527
 13137.517006907909 -1894.5994622965723 -999911.90418944939
 12471.62742860105 -2104.5569548985331 -999920.01147557073
 12046.191944567019 -2265.9520676481629 -999924.8745385136
 11795.902211711995 -2389.4492318908387 -999927.57098870922
 11674.471699251128 -2482.707085353522 -999928.7689011012
 11648.270360257002 -2551.1592505130197 -999928.90216459532
 11692.026325908277 -2598.5898342722212 -999928.26935299078
 11785.94733934243 -2627.5581578056035 -999927.09103386221
 11913.757003386263 -2639.6990230785382 -999925.54441974917
 12061.309458526253 -2635.9214997391882 -999923.78546166862
 12215.511816468939 -2616.516870355626 -999921.96451049566
 12363.36939302736 -2581.190974016477 -999920.23909430264
 12490.959927999862 -2529.0222092717586 -999918.78668556979
 12582.167552076906 -2458.3502328348977 -999917.81941008742
 12616.94060861184 -2366.5813708132791 -999917.60265648598
 12568.803322323734 -2249.8974577069403 -999918.47824933939
 12401.223318630397 -2102.8269882017553 -999920.8907602937
 12062.349509787704 -1917.6301501245798 -999925.40842750412
 11477.507760189093 -1683.4136865744049 -999932.71420329821
 10538.929487390116 -1384.900495655764 -999943.50491209119
 9092.7558688848494 -1000.8395781148478 -999958.1591800967
 6925.5601517688774 -502.41292358282573 -999975.89180831669
 3759.2055066921685 146.71371598671334 -999992.92339948285
 -718.29981212431517 982.41650146899417 -999999.25945132447
 -6706.9488568242214 2002.1210875429554 -999975.50387406128
 -13828.1822459182 3037.424560003501 -999899.77269115113
 -19887.944878180817 3577.5719490447782 -999795.81446787016
 43757.366299310983 1274.4699934590919 -999041.37482928298
 37112.536434379217 802.31242169784707 -999310.77044840518
 30005.413807219094 131.92345602909305 -999549.7274965659
 24349.954679322298 -496.03369432413518 -999703.37283500691
 20218.720964320852 -1006.1273462925614 -999795.07451793831
 17301.277364636921 -1401.0635013473866 -999849.34006209997
 15274.75102315241 -1703.1971018673169 -999881.88357466145
 13883.762189793533 -1934.5593214842108 -999901.74448677164
 12943.188222190562 -2112.4712662425609 -999914.00197406695
 12323.325503245085 -2249.6879330077882 -999921.53419793141
 11934.227834506053 -2355.4230157337497 -999926.01035697188
 11713.244108732311 -2436.2900246018698 -999928.42964052455
 11616.043270147673 -2497.0079869199067 -999929.41375372082
 11610.432642018739 -2540.9081416978183 -999929.36832542357
 11672.205236272188 -2570.3013789481452 -999928.57403703767
 11782.359994697905 -2586.7430042851597 -999927.23972976406
 11925.231475456598 -2591.2218181359453 -999925.53443931311
 12087.169753415701 -2584.2839513028262 -999923.60798403551
 12255.534283074077 -2566.1050139590448 -999921.60541939153
 12417.789305832173 -2536.5120947332689 -999919.67908184975
 12560.54306843324 -2494.9634998459605 -999918.0005955291
 12668.335774203182 -2440.4794109642116 -999916.77520129492
 12721.980352345181 -2371.5224073903391 -999916.26004250254
 12696.165266018963 -2285.8070849239316 -999916.78777461709
 12555.967072276058 -2180.0214130797776 -999918.79430157668
 12251.77056640409 -2049.418696290893 -999922.84402397531
 11712.013738958194 -1887.250539720013 -999929.63103389356
 10833.144203252385 -1684.0274787499732 -999939.90171315917
 9466.6124381238224 -1426.7510676670424 -999954.17276510072
 7404.3495572206712 -1098.7106806881936 -999971.98382878432
 4369.3844219613457 -681.76264699316948 -999990.22179192654
 33.536127146370291 -166.18121929971562 -999999.98562956508
 -5869.6372571807533 421.48259285266482 -999982.6847055367
 -13115.428670252397 966.57054274279142 -999913.52189685951
 -19532.502465276935 1259.5190854935565 -999808.42912985955
 43227.601898373781 -620.04052837883626 -999065.05793359573
 36544.896595031336 -845.1892811219027 -999331.65475128288
 29483.021901558805 -1158.0043395166674 -999564.61044071673
 23919.938121626583 -1458.6212702353926 -999712.81325401028
 19881.942937145788 -1708.7961521615714 -999800.87435486575
 17041.790875640931 -1905.9018690723401 -999852.9616407688
 15075.346355982356 -2058.7834355843715 -999884.24097142974
 13730.463396150055 -2177.2836648507437 -999903.36223595601
 12825.586159246121 -2269.3726765640859 -999915.17354589968
 12233.87119623442 -2340.946839433554 -999922.42317264236
 11867.471940138214 -2396.2518911397169 -999926.7078574429
 11665.253586656736 -2438.3194256774755 -999928.98570705357
 11583.978434169316 -2469.296976357497 -999929.8545478473
 11592.252391485858 -2490.6856384318344 -999929.70561412093
 11666.4496316641 -2503.5103552610403 -999928.81066048518
 11788.00145861628 -2508.4460079515025 -999927.37272275786
 11941.566418522983 -2505.9070218791408 -999925.55693985033
 12113.758042952441 -2496.1107802197098 -999923.5102231818
 12292.165944374185 -2479.1142699379598 -999921.37523348932
 12464.491914686678 -2454.8310993531063 -999919.3018666968
 12617.613875462965 -2423.0244356197109 -999917.458979827
 12736.418677569016 -2383.2803715477039 -999916.04828302492
 12802.180102545773 -2334.9517111829282 -999915.32250742533
 12790.229927970935 -2277.0714469792424 -999915.60892108059
 12666.544340863014 -2208.2178819297292 -999917.33779760345
 12382.778347085085 -2126.3249284933804 -999921.06965635309
 11869.121096550269 -2028.4205954320639 -999927.50210916961
 11024.32099092803 -1910.3202759586334 -999937.40555253369
 9702.4623386110234 -1766.3851033691437 -999951.36987167259
 7697.3946431716859 -1589.7507573303919 -999969.11092705093
 4730.1587968840622 -1374.0771380923368 -999987.86868130311
 459.35191178347895 -1119.0285903668632 -999999.26838515012
 -5416.6106518288834 -842.11226273764964 -999984.97547512338
 -12722.963447019018 -593.30385378642427 -999918.88380591304
 -19264.709184466908 -446.94542450433016 -999814.31837107905
 42991.746766059259 -2234.7250228250773 -999072.92812590778
 36315.840064238102 -2280.6745640568447 -999337.75986097998
 29283.406288666803 -2312.0288470559944 -999568.47521255072