# OOMMF OVF 2.0
#
# Segment count: 1
#
# Begin: Segment
# Begin: Header
#
# Title: Oxs_TimeDriver::Magnetization
# Desc: Oxs vector field output
# Desc:  MIF source file: /mnt/gpfs/work/plgrid/groups/plggspinsym/MF/switching-obrazki/p-ap/Anisotropy.mif
# Desc:  Iteration: 34100, State id: 238850
# Desc:  Stage: 0, Stage iteration: 34100
# Desc:  Stage simulation time: 5.02092e-09 s
# Desc:  Total simulation time: 5.02092e-09 s
# meshunit: m
# meshtype: rectangular
# xbase: 1.0000000000000001e-09
# ybase: 1.0000000000000001e-09
# zbase: 3.4999999999999998e-10
# xnodes: 35
# ynodes: 35
# znodes: 5
# xstepsize: 2.0000000000000001e-09
# ystepsize: 2.0000000000000001e-09
# zstepsize: 6.9999999999999996e-10
# xmin: 0
# ymin: 0
# zmin: 0
# xmax: 7.0000000000000005e-08
# ymax: 7.0000000000000005e-08
# zmax: 3.4999999999999999e-09
# valuedim: 3
# valuelabels: Magnetization_x Magnetization_y Magnetization_z
# valueunits: A/m A/m A/m
#
# End: Header
#
# Begin: Data Text
 -0 0 -0
 0 0 -0
 -0 -0 0
 -0 0 0
 0 0 0
 -0 0 -0
 0 0 0
 0 -0 0
 -0 0 0
 0 0 0
 0 0 0
 -0 -0 0
 0 0 0
 21312.525992122723 31659.028824425972 -999271.47569103038
 18945.727032819315 30946.618892224287 -999341.46626983187
 16764.026474944694 30206.006066054761 -999403.10416462307
 15079.308188941974 29682.484179581465 -999445.62863493082
 13624.382832775398 29423.765491647671 -999474.1708602173
 12081.192905164489 29446.625940422917 -999493.3421482672
 10134.211933325616 29771.413042554817 -999505.3580216266
 7543.9723011864726 30379.649576439326 -999509.96261844819
 4745.8546021261454 31032.80843413336 -999507.09935687087
 0 0 0
 -0 0 -0
 -0 0 -0
 -0 0 0
 0 -0 0
 -0 0 0
 -0 -0 0
 0 0 0
 0 -0 0
 0 -0 -0
 0 -0 0
 -0 -0 0
 0 0 -0
 -0 -0 -0
 -0 -0 -0
 -0 -0 -0
 -0 0 -0
 0 0 -0
 0 0 -0
 -0 -0 0
 0 0 0
 0 0 -0
 0 0 0
 25967.198727369258 29677.454774050486 -999222.17412764975
 23877.798469068293 28051.673141677413 -999321.24683418125
 22227.563211519438 25959.722011928989 -999415.84351397038
 20553.323892952347 25398.865877467968 -999466.0867128456
 18383.997877782644 24182.604298557355 -999538.50864855095
 16514.217834519426 23262.71897353512 -999592.98042516911
 15035.457830601981 22692.399888803695 -999629.42633513478
 13738.761885404914 22435.487530009566 -999653.88776373351
 12375.783666106492 22492.494297539877 -999670.40952452179
 10710.202792803 22911.573758347527 -999680.12451186264
 8591.2026237915179 23770.060433286268 -999680.5367038385
 6276.724580064385 24998.337840986045 -999667.78773437231
 4769.2532181897086 25415.436147392007 -999665.59900257585
 2732.5275216393129 27108.408249044089 -999628.76484000124
 31.090170846354631 28469.650018050106 -999594.65687910281
 -0 0 -0
 0 -0 0
 -0 0 -0
 0 -0 -0
 -0 0 0
 -0 0 0
 -0 0 -0
 -0 0 0
 -0 0 -0
 -0 0 0
 0 -0 -0
 -0 0 -0
 -0 0 0
 -0 0 0
 -0 -0 0
 0 0 -0
 0 -0 -0
 -0 -0 0
 30514.967121016263 27263.241928200692 -999162.42544501624
 27872.912925198689 25301.392591919433 -999291.21894369391
 25130.742819497278 23963.436220344422 -999396.91789091192
 22586.106256139981 21740.870433650714 -999508.48038271954
 20654.618441762981 19584.286864946574 -999594.83914484899
 18985.387480944868 17994.675976035047 -999657.81480400369
 17354.973540837611 16688.558605107766 -999710.10643340042
 15953.852473928671 15786.20181454024 -999748.10348582861
 14796.47457562542 15244.692306834871 -999774.30637949612
 13758.869184994493 15013.674504835912 -999792.62004508357
 12682.900283843755 15087.639614910709 -999805.73471612018
 11423.834978005323 15508.317459927544 -999814.47683255572
 9903.7002135371804 16343.486189401194 -999817.38691685966
 8207.2262939144857 17592.8372856559 -999811.54899951059
 6500.1116239243929 19016.874491521812 -999798.0331214153
 4285.9310740662604 20923.795240304957 -999771.88677596359
 1342.0478585060246 22986.527112789383 -999734.8740935463
 -1683.05056002023 24116.932663789405 -999707.72773831361
 -4932.640186771454 25731.938822329092 -999656.70926835272
 -0 0 -0
 -0 -0 -0
 0 0 -0
 -0 0 0
 -0 0 -0
 0 0 -0
 0 -0 -0
 -0 -0 -0
 -0 -0 0
 0 0 0
 0 0 0
 0 0 -0
 -0 0 0
 0 0 0
 -0 -0 -0
 32506.109974311719 23351.605546707699 -999198.70663083286
 29363.11365245518 22120.555977509273 -999324.01580262184
 25893.539155079499 19527.181376529465 -999473.96855421527
 23001.424692537013 17135.358708441472 -999588.57233566185
 20692.064991518146 14920.226330770347 -999674.55969061516
 18940.318144202945 13041.318174038292 -999735.55921997665
 17539.143167068458 11579.653928784515 -999779.12064208195
 16339.924385229589 10471.299728270686 -999811.66164087411
 15332.64095577781 9705.7187628329339 -999835.3410160183
 14484.773323930081 9242.0824377689423 -999852.37673066929
 13716.489911634488 9045.8304800098977 -999865.00631606812
 12930.334786236148 9111.4549803625287 -999874.88608848315
 12036.719971321496 9463.0018503608317 -999882.77761361201
 10976.474649885051 10138.052014314562 -999888.3622213112
 9731.4276771356544 11150.363893392238 -999890.47835270921
 8254.0318528468888 12471.310611391362 -999888.16243108234
 6309.6370323162801 14187.626281730005 -999879.44260346226
 3717.6005940254663 16268.906363800716 -999860.74136929144
 479.14921671006579 18511.615144846928 -999828.53055949416
 -3464.2133553292347 20969.508577198518 -999774.11395567714
 -6937.8083883167737 22137.162288135729 -999730.87021487718
 -0 -0 -0
 0 -0 0
 -0 0 -0
 -0 -0 -0
 0 -0 -0
 0 -0 -0
 0 0 -0
 0 -0 -0
 -0 0 -0
 0 0 -0
 -0 0 0
 -0 0 0
 -0 0 -0
 33492.139926488184 20834.120625914209 -999221.80519686884
 30482.553380811263 18983.297352455156 -999355.01617844193
 26682.683673383457 16211.377797982228 -999512.49397987872
 23371.656259851788 13493.596311411105 -999635.77794227435
 20811.804323958131 11203.441766637818 -999720.63682478946
 18884.350606194017 9306.5951076174861 -999778.35973263846
 17447.695132820107 7777.6161691215839 -999817.52666237939
 16348.027966961088 6591.524864869285 -999844.63482160447
 15471.846387781301 5704.950629373704 -999864.0285097115
 14761.877766235719 5087.430654493035 -999878.09507667006
 14169.781826341754 4708.0202596288627 -999888.51970018551
 13636.639694570877 4544.6349467303926 -999896.68883892265
 13097.50202573061 4592.4235443040507 -999903.67790436477
 12490.132801388583 4863.5078659787014 -999910.16740197293
 11760.473599569308 5379.2955083749657 -999916.37372359668
 10856.382622963394 6159.3583372896755 -999922.09759621602
 9695.5809584247399 7224.392354046965 -999926.89926063747
 8129.4233404125453 8630.5739707050016 -999929.71036422765
 5996.8894468598992 10423.819813391447 -999927.6880342199
 3154.0440806889096 12632.681362150435 -999915.23009080091
 -508.31832098157088 15306.397420702058 -999882.72102806345
 -4623.5558926288904 18048.29436549118 -999826.42583670712
 -7861.3092929240329 19773.559071894302 -999773.57745533111
 0 -0 -0
 -0 0 -0
 0 0 0
 0 0 -0
 0 -0 0
 -0 0 0
 -0 0 0
 0 -0 0
 -0 -0 -0
 -0 -0 -0
 0 0 0
 34241.702191381475 19258.3565593124 -999228.01278470526
 31219.798129837942 17006.172260623582 -999367.85735272372
 27336.934394384447 13866.221824121836 -999530.09955190506
 23800.351286682962 10937.485360426805 -999656.89848698629
 20989.530331185983 8493.8109217831661 -999743.61452949583
 18884.543143412953 6537.9626334046297 -999800.29459631024
 17340.088305961566 4983.2474083190591 -999837.23104453797
 16212.698310243981 3759.3634939001022 -999861.49820843781
 15380.271003803306 2815.874581755812 -999877.75158475712
 14752.084396498874 2112.2129110766136 -999888.95111536107
 14267.441888880105 1618.5244506035574 -999896.90492597793
 13878.185570735915 1311.5081891809502 -999902.83323507675
 13537.329776874185 1176.1575214491247 -999907.67441599176
 13196.902619751581 1208.1847168634106 -999912.18716992065
 12808.916663378232 1413.7135804006191 -999916.96308634698
 12324.616043254067 1806.6051085215806 -999922.41699912306
 11688.00020551353 2406.3156640580737 -999928.7976131707
 10821.771528122323 3241.8553931595457 -999936.18778130191
 9615.5475167308123 4362.0710173740863 -999944.25523745723
 7935.3069308676568 5830.4714585746269 -999951.51707794494
 5632.7181769539393 7727.5962092312866 -999954.27732610144
 2572.5399233110438 10144.902595636257 -999945.22999495722
 -1226.3919997475271 13051.530250692429 -999914.07306867035
 -5353.6971836728744 16096.715441615182 -999856.10648655682
 -8589.5886653297366 18107.913861804271 -999799.14103890583
 0 -0 0
 0 0 0
 0 -0 -0
 0 -0 0
 0 -0 -0
 -0 -0 0
 0 -0 -0
 0 -0 0
 0 0 -0
 35277.705967493159 18075.810336504779 -999214.06542459631
 32029.557911559183 15674.349128274431 -999364.00885733077
 27958.846370033225 12335.10619740788 -999532.96497151896
 24242.099637366569 9207.9246561432265 -999663.71081914299
 21234.697075958615 6618.9320508117817 -999752.60808792023
 18947.609807370347 4562.6437269423977 -999810.06714515947
 17268.665274741554 2950.6278160302327 -999846.53172130371
 16059.540896398834 1688.3148062814244 -999869.61186912376
 15198.283743818129 703.81086403708537 -999884.251711922
 14587.639769646688 -53.141354913601724 -999893.59330978175
 14154.620814876356 -618.24706685847684 -999899.62720272643
 13845.706248729697 -1016.7158955783804 -999903.62670972524
 13618.094178330217 -1266.3358255358585 -999906.46757810656
 13432.839966565696 -1378.0689538841248 -999908.82571182004
 13251.563228946228 -1355.7528965031261 -999911.27506697958
 13034.830439871339 -1196.2868054407106 -999914.32737674215
 12739.8899229585 -890.15755304028914 -999918.44808678364
 12316.078508983594 -421.01382131992108 -999924.06559574453
 11697.848892381095 237.37781898517881 -999931.54964880587
 10798.806350441246 1126.1576940509842 -999941.05703799054
 9511.0519983318518 2303.8877361589848 -999952.11484909803
 7706.7781544397194 3849.7707030973129 -999962.89172949397
 5249.5258042488222 5858.9431793108433 -999969.05715309619
 2037.6935466565799 8401.102372665604 -999962.63394385611
 -1907.1361767460178 11434.458738109766 -999932.80573495035
 -6218.3329796963126 14568.869610060978 -999874.53231554944
 -9704.7250555155206 16605.437767383959 -999815.02176560159
 0 -0 0
 0 -0 0
 0 0 -0
 0 0 -0
 0 0 -0
 0 -0 0
 -0 0 -0
 37184.423603234907 16813.10612420681 -999166.97208412131
 33386.895922003154 14549.095771572014 -999336.59944631427
 28880.693647249809 11226.311153944323 -999519.8224509249
 24840.825856499399 8031.0221702384388 -999659.15994086117
 21585.488125527783 5342.0030249419824 -999752.73428286472
 19096.852677681978 3192.5154005231757 -999812.54146126041
 17257.832663935656 1505.5668387737194 -999849.93898096413
 15933.389111955277 187.04714859782493 -999873.03800271126
 15000.408508203645 -844.13511376626593 -999887.13122056762
 14358.324330035899 -1648.2013371624439 -999895.55552306864
 13929.120707277672 -2267.2378143499986 -999900.41465588717
 13653.672296648636 -2730.3658152232083 -999903.05646864127
 13486.743990546178 -3057.6902692659046 -999904.37456126313
 13391.396847896853 -3262.9130684467209 -999905.00743259094
 13334.417001083051 -3354.4931141577599 -999905.46588124416
 13283.34854036081 -3335.9921900821687 -999906.20750531531
 13204.427199427735 -3206.1521356025364 -999907.67758369504
 13060.367776146533 -2958.6939830503866 -999910.33244159771
 12807.23083796523 -2581.3366028337596 -999914.65212767338
 12390.340865651497 -2053.5537136857447 -999921.1280747985
 11740.21156615695 -1343.3415927078179 -999930.17899538751
 10769.474646275936 -404.14112363579846 -999941.92585659469
 9370.4741001943312 827.92280163921998 -999955.75340060529
 7415.8465193811762 2432.7691026797011 -999969.54296363133
 4768.1861489040602 4492.5899296710677 -999978.54028802714
 1307.8087424040207 7056.8206779569418 -999974.24512744963
 -2981.9701135384598 10047.511425486282 -999945.07617588504
 -7767.83400008853 13030.469319549497 -999884.92719125422
 -11848.593114658668 14784.0940389139 -999820.50459302531
 0 0 0
 0 0 0
 -0 0 0
 0 -0 0
 -0 0 -0
 40441.397210210082 14744.039455420199 -999073.12379636301
 35831.388214517901 13205.374577740631 -999270.59883741336
 30519.374706374161 10228.880504330898 -999481.83463790873
 25874.453985707503 7146.6327627495239 -999639.65421100415
 22194.403428728976 4455.9100829551871 -999743.74382727465
 19406.296986498088 2256.0712508693664 -999809.13467510534
 17350.625887963102 505.81316375729898 -999849.33861774358
 15869.113886907597 -873.80104588034555 -999873.69587172195
 14826.988012695776 -1959.8578391963263 -999888.15343703399
 14116.164330165046 -2814.9618020364046 -999896.3995808051
 13652.931364998647 -3485.3579390243563 -999900.71994432504
 13373.497736035328 -4003.5892042464247 -999902.55566819524
 13229.108145470451 -4392.1732179612936 -999902.84503650584
 13181.402376104488 -4666.6442580801368 -999902.23175206874
 13198.2517335337 -4837.6187008925017 -999901.19691721711
 13250.451834632891 -4911.9180286743122 -999900.14430814923
 13309.339739189818 -4893.0112168450696 -999899.4549038111
 13344.982269157743 -4781.0334607190234 -999899.52153568075
 13324.394318269484 -4572.3934916072976 -999900.77194380097
 13209.352605920389 -4258.8241696757768 -999903.6830717366
 12953.626136289897 -3825.7226680569861 -999908.77954740869
 12499.720963878144 -3249.9096533242264 -999916.59405325912
 11775.165289579552 -2497.1856488746257 -999927.55214877333
 10688.068644652214 -1520.1564089961309 -999941.72545860847
 9122.3234779573704 -257.94568898041558 -999958.35747214232
 6934.0991846872439 1358.9183941129188 -999975.0354930344
 3954.1871374046254 3392.9852829399442 -999986.42593534861
 13.737398631062501 5857.5481663027804 -999982.84432322311
 -4955.1852334049909 8610.1345639238098 -999950.65464356472
 -10610.164979216526 11103.660060240631 -999882.05961122271
 -15488.854932846543 12009.969161512279 -999807.90955743531
 0 0 0
 -0 -0 -0
 0 -0 -0
 0 0 -0
 38349.713657790518 11502.170570140635 -999198.17830825772
 33071.957540723844 9200.1939702913187 -999410.62734760495
 27645.593363126867 6401.8540005493824 -999597.28762785089
 23290.816882586256 3811.4856159122696 -999721.4664226938
 20020.965764129225 1621.7198903313783 -999798.24512471945
 17632.63413001128 -160.83741948097028 -999844.52008547902
 15920.536584998732 -1589.5393412347205 -999871.99674734776
 14718.292893153042 -2729.1205456961429 -999887.95560070558
 13898.816325431446 -3637.5528711253851 -999896.79023080261
 13366.802662744172 -4360.7234517524657 -999901.15145325859
 13051.066478148758 -4932.4966072225889 -999902.66533348267
 12898.009689760956 -5376.8993112838716 -999902.36038317205
 12866.302509119012 -5710.7323015139282 -999900.91798953956
 12922.6161144545 -5945.7694388992877 -999898.82179075398
 13038.262426616127 -6090.308949090032 -999896.45056365686
 13186.659480788601 -6150.0706723027688 -999894.13871792622
 13341.495938456066 -6128.5739916192979 -999892.21672485943
 13475.31840800204 -6027.1038311952416 -999891.03897035238
 13558.203168138163 -5844.3133368778836 -999891.00362413109
 13556.178812015371 -5575.4163763057713 -999892.56660315627
 13429.145610232918 -5210.9508629520815 -999896.24663726147
 13128.063094056488 -4735.1578814460372 -999902.6113773461
 12591.096985671187 -4124.1550400612878 -999912.22395863465
 11738.253736222345 -3344.1908412993976 -999925.5121191981
 10464.14150217584 -2350.7328073314657 -999942.48624502949
 8629.0311646218779 -1089.8595302023148 -999962.17529832816
 6050.4813152422312 495.11597690058187 -999981.57309823623
 2505.9053275758633 2444.5889450199506 -999993.87219291436
 -2215.7861473299122 4734.8542653699706 -999986.33563006017
 -8067.1541763449386 7163.5276042637761 -999941.80075430276
 -13694.863198620864 9089.4352818050575 -999864.90731909825
 -0 0 -0
 -0 -0 -0
 0 0 -0
 42071.339753168213 9610.3531564972964 -999068.38779113651
 36780.10086609405 8305.7985535035295 -999288.86608961492
 30471.942745648219 5817.2428360970189 -999518.69436799036
 25153.00286283033 3353.576879657423 -999677.98813872784
 21145.024601975343 1209.5176999462788 -999775.68734267366
 18240.781745230965 -574.74183810838269 -999833.45790843712
 16176.222561231925 -2031.9777277576356 -999867.09161276196
 14733.325509380624 -3213.7692012391176 -999886.29393894365
 13749.527751814801 -4170.575835051035 -999896.77306400298
 13107.155662113137 -4944.7163808789519 -999901.87131056108
 12721.272533375479 -5568.9108430025517 -999903.57357954979
 12529.852293942251 -6067.2062298348419 -999903.09120937146
 12486.450479417397 -6456.7884651208751 -999901.19433729153
 12554.826463540583 -6749.8756118548854 -999898.40259483096
 12705.021992296211 -6955.3000774551638 -999895.09760624787
 12910.522467953842 -7079.6293566882769 -999891.59275282233
 13146.257052802077 -7127.8318326416502 -999888.17871743406
 13387.206158160612 -7103.5368790052271 -999885.15464281582
 13607.373053372497 -7008.9655474472866 -999882.850038214
 13778.83310747324 -6844.5560287633934 -999881.64090104459
 13870.576319049298 -6608.3014010169027 -999881.96176607301
 13846.83981780686 -6294.7904613712362 -999884.31362838543
 13664.599089875559 -5893.99079497403 -999889.26367084356
 13269.773369735518 -5389.8311281475198 -999897.42615686625
 12591.571085838437 -4758.7262758788384 -999909.39932666975
 11534.336274432244 -3968.3321543104289 -999925.60294584965
 9966.5230419101736 -2977.1448075328585 -999945.90105027682
 7707.8404604641782 -1736.1978618437679 -999968.78691908228
 4521.1112559727626 -195.83545530007277 -999989.76054831955
 134.26408921893102 1675.1255604705777 -999998.58796275849
 -5617.1323517548863 3834.0025201540034 -999976.87385699979
 -12241.680376977569 5959.621356454234 -999907.30779149511
 -17562.552598313792 6732.5672546475616 -999823.09899521386
 -0 -0 0
 0 0 -0
 40187.429003559526 7008.79097846898 -999167.5772357228
 34280.905231027231 5302.0443773935331 -999398.17283301114
 28006.426350068719 3062.5126401773377 -999603.05176576297
 23014.574817131583 981.2915332229253 -999734.64800061507
 19359.492799487682 -788.76007135974282 -999812.27632795961
 16767.029734175758 -2256.1124696481884 -999856.87809326861
 14961.916413444889 -3463.8124307647399 -999882.06457595865
 13730.74463481352 -4456.8562954553099 -999895.79611264262
 12919.83039804792 -5273.7782594118135 -999902.62788201333
 12420.810237648033 -5944.9833087054585 -999905.18582838622
 12157.016287547069 -6493.309076626645 -999905.01743526629
 12073.06861666566 -6935.3789168136946 -999903.06606863532
 12127.415792807973 -7283.1422014245791 -999899.93580650957
 12287.116544498738 -7545.2983600471753 -999896.04221622937
 12524.230096988222 -7728.4351584975975 -999891.70161096891
 12813.373708249754 -7837.8291415413296 -999887.18658084655
 13130.113943673914 -7877.9017367213673 -999882.7625137124
 13449.936561789304 -7852.3754896125192 -999878.71234747977
 13747.536788862746 -7764.1614137331435 -999875.35374654573
 13996.177242131158 -7615.0188828221362 -999873.05119701137
 14166.829304845633 -7404.9945205333079 -999872.22533861722
 14226.795081364862 -7131.6606532255437 -999873.3608402817
 14137.435160464716 -6789.1527491015886 -999877.01260306675
 13850.536130875149 -6367.0304046074098 -999883.80503572221
 13302.709358791615 -5848.9766635278047 -999894.40812303009
 12407.128759503563 -5211.41014313081 -999909.44808030769
 11042.050790357096 -4422.1717300180135 -999929.25625342771
 9036.617564930546 -3439.8004256708205 -999953.25256534701
 6158.4808500960971 -2215.082441817854 -999978.58303235448
 2121.3782587980832 -700.93936576001192 -999997.50421602989
 -3324.9593219924741 1106.7871810271308 -999993.85981497052
 -10019.190187728469 3024.9661157749761 -999945.23120417981
 -16114.31433109112 4367.81174199005 -999860.61583313951
 0 0 0
 -0 -0 0
 37816.112253841224 4827.6334135801508 -999273.05357926514
 31841.869412433007 2926.8690880590152 -999488.63364705793
 25852.405996707315 911.33693306973055 -999665.35529104713
 21213.936318823195 -843.86889015331406 -999774.6029936733
 17871.360885815648 -2309.9622548469056 -999837.6260845908
 15534.42506257224 -3526.5704307783226 -999873.11441951082
 13935.194318503429 -4538.5566144287995 -999892.60016421915
 12871.224517150826 -5383.3237012855316 -999902.67096620763
 12198.879648567818 -6089.6457587586719 -999907.04745483876
 11818.053216419667 -6678.8666440051793 -999907.85893427476
 11658.499490810253 -7166.4595805296121 -999906.35623877461
 11669.547276424206 -7563.5170782410232 -999903.30276270723
 11812.842350847439 -7878.0665389433707 -999899.19133040716
 12057.375895282616 -8116.1533139778694 -999894.36829192296
 12376.174981188162 -8282.6658083614238 -999889.1077214221
 12744.171930363866 -8381.8863126915894 -999883.65826412546
 13136.912027644401 -8417.7873455458048 -999878.27379065647
 13529.809737321661 -8394.0906213988128 -999873.23371070973
 13897.706557948399 -8314.1277379835919 -999868.85591680754
 14214.468399805977 -8180.5195574209311 -999865.50494948158
 14452.357217813358 -7994.7027090759066 -999863.59774693381
 14580.863155396393 -7756.3032941200145 -999863.60979328235
 14564.634539333045 -7462.3677086103153 -999866.08327761421
 14360.037495128649 -7106.4275061778899 -999871.63576693088
 13909.769001770175 -6677.3769378567813 -999880.95839632174
 13134.841569947012 -6158.1058270398116 -999894.77129823773
 11923.362823674694 -5523.8505118330531 -999913.65651965048
 10116.324782790811 -4740.3149622505543 -999937.59274614137
 7493.6953734294648 -3762.1668271702556 -999964.84469725972
 3774.3126168223325 -2534.5879519046348 -999989.66516068799
 -1322.4037417356219 -1007.9885432751031 -999998.61760276486
 -7774.9662568251924 797.89194117607428 -999969.45616761479
 -14014.318086047579 2529.8618101851316 -999898.59420233441
 -0 0 -0
 43001.933336899645 4191.2097410256283 -999066.19775177841
 36998.722229372412 2884.0225830895429 -999311.15122725093
 29987.714031917261 938.40991772742746 -999549.82686905924
 24106.942756060511 -803.09438008254472 -999709.06285297463
 19734.746644692677 -2254.1812477575563 -999802.70975916646
 16636.541150221365 -3458.6628296722479 -999855.62115236814
 14498.570624673532 -4466.512199255706 -999884.91423694137
 13059.496798901955 -5317.149093598824 -999900.58379264676
 12127.17128613653 -6039.2736787888653 -999908.22523371084
 11566.72814363426 -6653.2153980289777 -999910.96879918198
 11284.687387861668 -7173.1925848034398 -999910.59657286352
 11215.5278451425 -7609.1027430283484 -999908.15252732125
 11311.739008254757 -7967.908158591039 -999904.27391835139
 11536.855046046743 -8254.7063714471624 -999899.37533652259
 11860.763166223283 -8473.5444795445237 -999893.75502653664
 12256.656845092977 -8627.9980990656841 -999887.65969572018
 12699.174810895516 -8721.5371963678936 -999881.32583224808
 13163.359339428509 -8757.6898802365104 -999875.00660775742
 13624.153324695735 -8740.0333922289628 -999868.98854924401
 14056.16836373393 -8672.0289231295774 -999863.60072026157
 14433.476775712239 -8556.7314205714611 -999859.2186380846
 14729.151939723699 -8396.383655850228 -999856.26608260081
 14914.262674864853 -8191.9125678975306 -999855.21818778606
 14955.958921301499 -7942.315663041566 -999856.60917686252
 14814.214497264345 -7643.9246406809216 -999861.04507822311
 14436.674553241426 -7289.4899458152267 -999869.21432964096
 13750.976297189145 -6867.0143856529539 -999881.87040485023
 12653.961645159025 -6358.2136615562913 -999899.72015883517
 10997.830944259555 -5736.4973783307578 -999923.06719684694
 8575.6261594518946 -4964.4972211142585 -999950.90499649779
 5115.9281937839614 -3991.9031960563993 -999978.94577215461
 319.63114958991071 -2757.5869965559514 -999996.14676751872
 -5958.0232689970308 -1217.4576520194732 -999981.50970685051
 -13098.257509305466 477.08488524116996 -999914.10033073951
 -18777.903461649261 1255.9335287879585 -999822.89080244408
 41966.054330744009 1539.4863056752754 -999117.85103951767
 35454.357021637297 515.25649749015997 -999371.1638219927
 28376.194220213707 -895.42382134621016 -999596.9136695835
 22688.138209972756 -2215.9190826315166 -999740.13527875545
 18531.753771255386 -3350.0739237014523 -999822.65982866543
 15617.903484394506 -4313.148185451807 -999868.73030587507
 13628.952197639945 -5136.2197937906731 -999893.92982867162
 12311.312339857464 -5845.4004225088338 -999907.12712850037
 11481.406952183972 -6459.3947336983447 -999913.22299191169
 11011.204490017803 -6990.8754533967276 -999914.93690017145
 10812.089613865424 -7448.2434580852405 -999913.80747921008
 10821.74875406832 -7837.0729375367655 -999910.73103636364
 10994.560960411787 -8161.1953073258155 -999906.25286595908
 11294.933349479186 -8423.4966378617064 -999900.72966521175
 11692.858365333672 -8626.4873392261161 -999894.42481665744
 12161.106592724169 -8772.6847148756606 -999887.56742412504
 12673.583202830981 -8864.8263635304174 -999880.3904179465
 13204.500924907181 -8905.9379341553213 -999873.1546675493
 13728.065482628899 -8899.268725127029 -999866.16266091471
 14218.418070286929 -8848.1222442584494 -999859.76382707269
 14649.570619856215 -8755.5950934970424 -999854.35421125859
 14995.075102440873 -8624.2479980343833 -999850.37384057662
 15227.126329618119 -8455.7107935227577 -999848.30628386722
 15314.762039120476 -8250.227202115535 -999848.68445920269
 15220.735773091767 -8006.1134456229902 -999852.10473850649
 14896.551470879711 -7719.0995875263752 -999859.24422182201
 14275.044018463126 -7381.4843263035009 -999870.86006514437
 13259.924568416425 -6981.0410284404916 -999887.71342916263
 11712.16592768277 -6499.6564504733469 -999910.28579333448
 9434.9627781174986 -5912.0014955340484 -999938.01293664821
 6164.8417772151224 -5185.6608351447912 -999967.5512973232
 1593.7796415667244 -4288.214825767147 -999989.535485278
 -4503.1651080196889 -3220.4290663018437 -999984.6750528923
 -11822.588754090539 -2127.8116875427713 -999927.84680324513
 -18225.6211166541 -1476.9431818687713 -999832.80871041119
 40817.43174357275 -837.91570364504275 -999166.27002873388
 34146.744912130751 -1498.4319853763998 -999415.70655733231
 27118.67578036445 -2425.3964547452265 -999629.27872084489
 21580.468096683642 -3352.1929622058105 -999761.49465713685
 17575.981381454003 -4190.2250068241065 -999836.75012117415
 14790.429911841224 -4929.9187970629237 -999878.46215611487
 12906.464552284184 -5582.5117146381253 -999901.12447967404
 11676.871048044201 -6160.4589188180053 -999912.84591630113
 10924.396551367463 -6672.9543757839765 -999918.06126296509
 10525.794376816091 -7125.9172700846848 -999919.2112144843
 10395.641419890922 -7522.9210804669601 -999917.66475939727
 10473.493658526018 -7866.1006478540821 -999914.21151575923
 10714.578902608333 -8156.8535335796951 -999909.32765894919
 11083.376534329707 -8396.3443776872136 -999903.32540985651
 11549.396069751378 -8585.8496277246741 -999896.4419561628
 12084.559567166532 -8726.9665316703376 -999888.89556551352
 12661.746405151947 -8821.7068835672926 -999880.92174300039
 13254.131823214813 -8872.4866564463809 -999872.79539456603
 13835.029862030271 -8882.031680345257 -999864.84159707604
 14377.962927388144 -8853.2119374048489 -999857.43724815594
 14856.707693326875 -8788.8275081865741 -999851.00627420808
 15245.044872360097 -8691.3554723028665 -999846.01261738979
 15515.932460528395 -8562.6739502054697 -999842.9558959261
 15639.763915520762 -8403.7582851105817 -999842.37489283876
 15581.315989923654 -8214.3465554293343 -999844.86151737045
 15294.880779769686 -7992.54511171996 -999851.08183397469
 14716.985883293832 -7734.3505132697173 -999861.78552270355
 13756.067040712309 -7433.0666936026446 -999877.75259733619
 12278.779268015096 -7078.7140848027393 -999899.5566488629
 10094.020824574847 -6657.879811991168 -999926.88901739335
 6940.4308266540129 -6155.5360761786942 -999956.9689719429
 2497.6424579708364 -5562.9613537179666 -999981.4074487231
 -3512.3098481942211 -4900.4660682495442 -999981.82439074572
 -10908.927699821801 -4262.093384892124 -999931.41257609183
 -17577.266005266112 -3840.4863912760575 -999838.13209141931
 39890.768403910144 -2668.4218468798863 -999200.48344713729
 33185.025167791653 -3085.5243271899144 -999444.46251116879
 26208.196693286747 -3660.2375788603922 -999649.80522528617
 20761.976308618701 -4258.6308651596491 -999775.37697370548
 16848.203381764914 -4828.7570795105621 -999846.39877726894
 14139.993872696637 -5358.172189462889 -999885.66874621634
 12321.46287764111 -5846.8260171909369 -999906.99376395997
 11149.968602206918 -6296.565274923264 -999918.01237196871
 10452.337910393486 -6708.4322608808025 -999922.86980987072
 10108.14995431289 -7082.4912168049677 -999923.82891031506
 10033.620654683718 -7418.2195813545932 -999922.14520671603
 10169.00459030544 -7714.9098338138374 -999918.53243746737
 10469.50524815945 -7971.9757608936925 -999913.41478266323
 10899.049748940912 -8189.1634336063025 -999907.06984040642
 11426.225237603105 -8366.6799236899678 -999899.71499339561
 12021.819264491929 -8505.2500957241846 -999891.56241183518
 12657.502468229148 -8606.1070574626719 -999882.85441474698
 13305.304226075505 -8670.9269711034631 -999873.88399983384
 13937.566517840974 -8701.7167797445909 -999865.00307023758
 14527.111783870487 -8700.6721147942681 -999856.62038512796
 15047.354686462662 -8670.0159954135943 -999849.19259835349
 15472.101629072164 -8611.8362033638514 -999843.21288309316
 15774.746625203221 -8527.9264352279788 -999839.20299197431
 15926.546805292568 -8419.6416426689975 -999837.71420239378
 15893.579129888854 -8287.7604471461291 -999839.34067889769
 15631.897096020273 -8132.3520512657005 -999844.74226916535
 15080.279983086039 -7952.6277870948825 -999854.65987157926
 14149.917577746333 -7746.7760006822436 -999869.87518083479
 12710.562376666134 -7511.8135988409003 -999891.00118989206
 10573.825946423438 -7243.6685609951446 -999917.85836169228
 7478.4129028475072 -6938.155125197577 -999947.96631820465
 3096.0435852240403 -6594.454720823288 -999973.46348843351
 -2875.2420410618447 -6223.6240401180457 -999976.49946736882
 -10291.646956835146 -5862.2528459061332 -999929.85553712037
 -17028.110542643441 -5582.9309320881684 -999839.4242744958
 39268.292665825 -4222.634184340207 -999219.78090491018
 32568.901735191237 -4445.9043534062694 -999459.60427335114