# OOMMF OVF 2.0
#
# Segment count: 1
#
# Begin: Segment
# Begin: Header
#
# Title: Oxs_TimeDriver::Magnetization
# Desc: Oxs vector field output
# Desc:  MIF source file: /mnt/gpfs/work/plgrid/groups/plggspinsym/MF/switching-obrazki/p-ap/Anisotropy.mif
# Desc:  Iteration: 34800, State id: 243750
# Desc:  Stage: 0, Stage iteration: 34800
# Desc:  Stage simulation time: 5.12387e-09 s
# Desc:  Total simulation time: 5.12387e-09 s
# meshunit: m
# meshtype: rectangular
# xbase: 1.0000000000000001e-09
# ybase: 1.0000000000000001e-09
# zbase: 3.4999999999999998e-10
# xnodes: 35
# ynodes: 35
# znodes: 5
# xstepsize: 2.0000000000000001e-09
# ystepsize: 2.0000000000000001e-09
# zstepsize: 6.9999999999999996e-10
# xmin: 0
# ymin: 0
# zmin: 0
# xmax: 7.0000000000000005e-08
# ymax: 7.0000000000000005e-08
# zmax: 3.4999999999999999e-09
# valuedim: 3
# valuelabels: Magnetization_x Magnetization_y Magnetization_z
# valueunits: A/m A/m A/m
#
# End: Header
#
# Begin: Data Text
 -0 0 -0
 0 0 -0
 -0 -0 0
 -0 0 0
 0 0 0
 -0 0 -0
 0 0 0
 0 -0 0
 -0 0 0
 0 0 0
 0 0 0
 -0 -0 0
 0 0 0
 26094.913807023466 34256.97474175052 -999072.32728914451
 23573.822527847031 33955.165885046961 -999145.2955407158
 21086.255414969779 33642.941506157862 -999211.45025434322
 19089.331719144546 33496.112220021401 -999256.52756469906
 17353.019006321836 33542.84511651699 -999286.62068140146
 15558.387955998436 33782.499439396597 -999308.10028531146
 13377.135934965525 34214.459249229461 -999324.98368271592
 10548.7065882281 34800.425302270603 -999338.6088749381
 7490.7218743012409 35319.065036351385 -999348.01382239186
 0 0 0
 -0 0 -0
 -0 0 -0
 -0 0 0
 0 -0 0
 -0 0 0
 -0 -0 0
 0 0 0
 0 -0 0
 0 -0 -0
 0 -0 0
 -0 -0 0
 0 0 -0
 -0 -0 -0
 -0 -0 -0
 -0 -0 -0
 -0 0 -0
 0 0 -0
 0 0 -0
 -0 -0 0
 0 0 0
 0 0 -0
 0 0 0
 31375.769698505454 31611.455786477836 -999007.64608629805
 29279.241652341392 30570.913912767552 -999103.67091248452
 27577.821917050307 29018.006495586418 -999198.38822795032
 25739.602711971005 28651.135911849869 -999258.01736247796
 23302.381715199677 27709.825530549082 -999344.36736065394
 21085.275606966858 27118.597561397997 -999409.82225455472
 19267.122546185026 26879.551349595149 -999452.98424089712
 17657.042441604412 26916.644272003483 -999481.72725335497
 15996.971012394897 27203.159820768131 -999501.91846448905
 14027.632244319355 27769.863856515662 -999515.91292735748
 11560.960113665522 28697.890073283012 -999521.27306355617
 8820.2986468987729 29991.081317558455 -999511.24924794293
 6882.8601382393044 30700.422398435763 -999504.93260457448
 4699.6177565338676 32434.282953242939 -999462.82116057305
 1910.0116570707219 33623.688977021484 -999432.73880489171
 -0 0 -0
 0 -0 0
 -0 0 -0
 0 -0 -0
 -0 0 0
 -0 0 0
 -0 0 -0
 -0 0 0
 -0 0 -0
 -0 0 0
 0 -0 -0
 -0 0 -0
 -0 0 0
 -0 0 0
 -0 -0 0
 0 0 -0
 0 -0 -0
 -0 -0 0
 36363.17652198123 28732.08532415131 -998925.51607522601
 33887.259598398705 27425.452527731009 -999049.29717735131
 31072.610826804561 26492.278844843386 -999165.97821283585
 28386.752135258132 24699.074352558961 -999291.82325751975
 26292.110553117182 22930.433640386673 -999391.27479467541
 24426.791403021991 21588.466389798734 -999468.49374089309
 22519.513639974499 20516.644557599309 -999535.86168857198
 20785.892617026959 19888.552071988095 -999586.11043000873
 19287.356116737079 19642.980448672504 -999621.00378749508
 17913.434820990857 19695.793172142556 -999645.52946743777
 16498.362627756473 20016.105981460449 -999663.5231576385
 14879.166416822607 20635.236379354206 -999676.34633730771
 12956.840830110224 21635.036003885823 -999681.97217555845
 10819.610577755577 23064.049604786625 -999675.44015183917
 8709.9658600444727 24717.74354326458 -999656.52583717287
 6207.1352794651484 26734.245242873461 -999623.3048518406
 2984.7111899197735 28778.719392562598 -999581.35077102995
 -307.31111252464109 29957.185208896211 -999551.13556748081
 -3596.3732436507003 31363.110662968091 -999501.5864865022
 -0 0 -0
 -0 -0 -0
 0 0 -0
 -0 0 0
 -0 0 -0
 0 0 -0
 0 -0 -0
 -0 -0 -0
 -0 -0 0
 0 0 0
 0 0 0
 0 0 -0
 -0 0 0
 0 0 0
 -0 -0 -0
 38917.444617220695 25133.16727701321 -998926.30178962217
 35874.410841222612 24250.779954429887 -999062.02325901529
 32365.424257967497 22100.209010632898 -999231.73492152872
 29322.310914622805 20049.926223138671 -999368.90212827455
 26812.127283768656 18145.537349444799 -999475.78725290718
 24845.194694980171 16567.926303371922 -999554.01060601755
 23213.560747753254 15371.919644001906 -999612.34220265027
 21743.623686737701 14523.579475642317 -999658.08178005775
 20426.594634546618 14037.159399003727 -999692.80901066959
 19246.182246629509 13866.493546506605 -999718.61282345559
 18129.764852723762 13957.484595011449 -999738.21585961443
 16976.698046893234 14287.427237640226 -999753.80026602256
 15689.147559489826 14873.807546622103 -999766.28293712868
 14202.753679241792 15762.544534547025 -999774.88665085146
 12511.549017057712 16985.606916689951 -999777.45038526726
 10604.553766172077 18511.617963561366 -999772.40582034038
 8268.819426211734 20371.125659516794 -999758.29272112611
 5300.8208257014949 22526.772677632147 -999732.1870437623
 1724.9079638848239 24795.51826539493 -999691.0557599616
 -2489.7963686377166 27134.366498337378 -999628.69460053835
 -6246.2764199373551 28186.270401341568 -999583.17222317623
 -0 -0 -0
 0 -0 0
 -0 0 -0
 -0 -0 -0
 0 -0 -0
 0 -0 -0
 0 0 -0
 0 -0 -0
 -0 0 -0
 0 0 -0
 -0 0 0
 -0 0 0
 -0 0 -0
 40188.650665515786 22992.541536986053 -998927.53260251821
 37444.212086453357 21420.800905499516 -999069.10685387114
 33653.051425630176 18904.79909899439 -999254.76266103983
 30182.181752118635 16438.789434847204 -999409.22654666286
 27412.375960791094 14402.559503479228 -999520.44897737505
 25266.191688570412 12774.520616567515 -999599.1352440106
 23607.994382742287 11530.607205856706 -999654.79426584486
 22274.983797499557 10634.082764040946 -999695.32427664613
 21138.024544695199 10042.748824276887 -999726.12605373084
 20133.223290811431 9729.4448781549199 -999749.96435223008
 19214.153047821888 9657.6881459716824 -999768.74595194787
 18324.016996962968 9793.4892072563744 -999784.13568642049
 17397.430708060314 10120.803486089095 -999797.42885324254
 16370.995514655522 10646.300810403285 -999809.30521020549
 15193.0503743958 11393.032271807328 -999819.66875830886
 13822.283294927742 12384.524668260827 -999827.76918490115
 12194.109983986435 13636.040850915047 -999832.66703564487
 10170.466892462866 15185.192996559024 -999832.97180921491
 7588.6443856892565 17071.838134736648 -999825.46717869164
 4309.727786453539 19322.439742257666 -999804.01557946031
 226.65290209290231 21967.07487916806 -999758.66900453286
 -4281.0835797988711 24640.070928502035 -999687.22069856501
 -7805.2546307066341 26306.391642848361 -999623.45498636796
 0 -0 -0
 -0 0 -0
 0 0 0
 0 0 -0
 0 -0 0
 -0 0 0
 -0 0 0
 0 -0 0
 -0 -0 -0
 -0 -0 -0
 0 0 0
 40980.426356501885 21770.486161575249 -998922.74505485571
 38380.822068954185 19807.998838444299 -999066.8424481554
 34641.763909839552 16862.499912207266 -999257.52651152213
 31016.239599490003 14070.941750766089 -999419.83244247932
 28021.527095234855 11795.890726293161 -999537.71863858367
 25713.701000076682 10060.152271561426 -999618.7267739391
 23968.102123726636 8770.8917671490472 -999674.24771182134
 22636.319350850179 7845.1013204316796 -999712.98452681839
 21583.46990401324 7218.4674851237132 -999740.99023400503
 20705.593753350266 6841.473866082998 -999762.20803882217
 19933.606301237553 6677.8449471695458 -999779.00444382662
 19216.417809089595 6696.4848662959876 -999792.92174780963
 18506.960990819767 6873.074946002198 -999805.10762631684
 17758.402280658553 7194.8951655043356 -999816.41946509143
 16925.410597124777 7662.7060196026659 -999827.39180949447
 15964.845048333651 8288.4139574257715 -999838.19986868522
 14830.275097012061 9090.6017862603148 -999848.70050408645
 13455.96582090799 10094.774218877332 -999858.50624840742
 11739.957815794152 11343.860849834535 -999866.73622613493
 9551.4042821414896 12899.917631854443 -999871.17310248048
 6743.4660439782156 14846.049773064733 -999867.05139825935
 3183.0097966957865 17278.668958246297 -999845.64611127123
 -1090.6841119172132 20181.779381419612 -999795.73223192303
 -5597.8916518771794 23200.157690937162 -999715.16758133157
 -9049.005301234467 25175.150588469023 -999642.09960160579
 0 -0 0
 0 0 0
 0 -0 -0
 0 -0 0
 0 -0 -0
 -0 -0 0
 0 -0 -0
 0 -0 0
 0 0 -0
 41859.025563984032 20827.216427975509 -998906.42656592012
 39182.096830000533 18782.411229541271 -999055.54616167792
 35396.734228840913 15652.7610169497 -999250.75045179704
 31704.288762101311 12627.401352772411 -999417.52376530052
 28590.577534011674 10143.458537345061 -999539.73864232784
 26151.622405797556 8250.9709164444484 -999623.93635030626
 24311.761200571669 6869.0654315372703 -999680.82616774435
 22938.137770835518 5890.8854650770336 -999719.53032040119
 21899.690000822149 5227.7163789384558 -999746.50514984503
 21086.102831218348 4813.5422058989852 -999766.0756791177
 20412.567699979718 4600.0837649915056 -999781.05918708455
 19817.49620129168 4551.9819479203779 -999793.25177991542
 19254.29405178544 4642.2612114601088 -999803.84154663642
 18683.705189995439 4851.3318050089165 -999813.67451145174
 18069.719194520614 5167.9459001883515 -999823.37319318764
 17377.732337486803 5589.7873575677322 -999833.3704653508
 16572.408654119714 6123.0287826927251 -999843.9197144357
 15612.813866464428 6781.9193370732437 -999855.11231041688
 14443.995889014983 7590.8726691954489 -999866.86595510237
 12988.687083862205 8590.1125206250617 -999878.74463592866
 11145.30120749482 9840.6653708478443 -999889.46567410813
 8790.34323835953 11428.731848834985 -999896.05157440226
 5792.8838262234131 13461.18073599359 -999892.61378918542
 2068.0492506886631 16021.96320000738 -999869.50141881721
 -2319.2455812525836 19069.766126500719 -999815.46553342266
 -6930.0659514538456 22186.79518047133 -999729.82365513546
 -10525.31938490605 24172.220989545702 -999652.40027935605
 0 -0 0
 0 -0 0
 0 0 -0
 0 0 -0
 0 0 -0
 0 -0 0
 -0 0 -0
 43435.26641234487 19563.699491902931 -998864.67516570014
 40371.809922243716 17792.994379036441 -999026.28910085734
 36298.659006132482 14767.555038209799 -999231.86832313845
 32402.799022454728 11709.793844779902 -999406.29342806479
 29137.030368771229 9121.4613538843805 -999533.80753432203
 26572.472828800444 7109.3388793162239 -999621.60890432016
 24634.382204418682 5623.4039499742039 -999680.71129807364
 23200.299698937277 4568.5727501384181 -999720.39802982227
 22143.235625166155 3850.6128162021855 -999747.39304335695
 21351.540491220156 3393.0922085566554 -999766.27200757095
 20734.838496489188 3138.6250257097927 -999780.0835711183
 20223.572916492125 3044.9983363429378 -999790.8456690443
 19765.492692605578 3081.0707054928939 -999799.89613018371
 19320.471951541287 3223.6027113361806 -999808.14547048428
 18855.712795155025 3455.8290672178878 -999816.24278686568
 18342.361228386482 3767.2459424708863 -999824.66745053662
 17753.095060032578 4153.7840746054608 -999833.77303112287
 17059.568448293747 4618.066037474623 -999843.81009757298
 16228.676409244352 5170.2044148650066 -999854.9390028097
 15217.390946793788 5829.970577078835 -999867.21241164976
 13967.336357264167 6630.5989271361777 -999880.46719242923
 12400.785202276253 7623.0738948477192 -999894.04902257537
 10418.450339245241 8879.8229613299027 -999906.29792831291
 7902.0668724930601 10493.454681927878 -999913.71865175501
 4729.0046961606267 12560.42604116747 -999909.93205000623
 807.40416646786389 15137.457149372429 -999885.09614333336
 -3831.8657857698918 18134.354941584166 -999828.21623289492
 -8789.9727401252585 21076.994843503606 -999739.2143292143
 -12842.556566248926 22734.049378726235 -999659.05774903484
 0 0 0
 0 0 0
 -0 0 0
 0 -0 0
 -0 0 -0
 46206.044922271205 17153.686446137806 -998784.63767418289
 42564.086613585852 16302.457061012437 -998960.72416513215
 37848.541275022624 13798.452367214806 -999188.21582103462
 33457.90004147018 10965.957736664423 -999379.96612686454
 29852.73845742577 8433.2322334744313 -999518.73149065522
 27062.16297557866 6390.2606471023955 -999613.32719404332
 24974.042104532662 4839.0102454653415 -999676.38823811628
 23445.395499413105 3713.2749642649924 -999718.22281026572
 22339.792576141343 2931.8686704698985 -999746.13668358512
 21539.456845563822 2420.4761916340849 -999765.0689506029
 20948.320922957486 2118.9127600731167 -999778.3144573723
 20490.861500201565 1981.1044764456572 -999788.07745443366
 20109.082593682739 1972.4138255434355 -999795.84635111457
 19758.78246792364 2066.7440358865051 -999802.64006676606
 19405.700482337998 2244.3298847393403 -999809.17267854582
 19022.143131974768 2490.5106746070173 -999815.96077840566
 18584.342511511149 2795.3231244775397 -999823.3885952282
 18070.284851942597 3153.5875707639489 -999831.74569064507
 17457.466139884953 3565.3831154698355 -999841.2498588037
 16720.053777164532 4037.0540148436567 -999852.06005517137
 15825.24602040651 4583.0401138113539 -999864.26945446385
 14729.04779960481 5228.559773925308 -999877.85119663866
 13371.813049485791 6012.7214057906276 -999892.51512203342
 11673.679763816825 6991.2049086810184 -999907.41984180571
 9530.6777393073044 8236.3521589163647 -999920.66119514895
 6813.5007166352407 9830.4288033931662 -999928.46688026923
 3373.3816093020009 11845.339531642256 -999924.15123743145
 -927.97689717302217 14292.356490706861 -999897.42844194814
 -6114.2504517100633 17005.039232420801 -999836.70895907667
 -11794.762574540451 19384.602853341567 -999742.52722789987
 -16541.234477510618 20082.619349319542 -999661.48068335117
 0 0 0
 -0 -0 -0
 0 -0 -0
 0 0 -0
 45042.852831593562 14424.467847957638 -998880.91188894724
 40414.021042300155 12637.410648317731 -999103.09916209267
 35293.401975149958 10217.664313742736 -999324.75958168472
 31051.926188627967 7883.1962158352753 -999486.68480245303
 27819.893549859044 5908.3826103934189 -999595.49045491579
 25445.657437519523 4352.9895723846939 -999666.72946505283
 23738.983184471115 3187.7888662705905 -999713.10818629956
 22530.471337748935 2353.5086887043899 -999743.3865038323
 21681.993100717238 1787.2766782333636 -999763.32040001138
 21084.523552275012 1433.3880489108747 -999776.66919431323
 20653.446038158374 1246.4897369711941 -999785.91779944813
 20323.769477418944 1191.1245470219669 -999792.74133019301
 20045.81812438176 1239.9014887994822 -999798.29356726853
 19781.489344740941 1371.5634469799222 -999803.38641805726
 19501.081718141621 1569.4888478260038 -999808.60394206422
 19180.719748496158 1820.81378140384 -999814.37508524698
 18800.302669048506 2116.106606534398 -999821.01933915261
 18341.744355944538 2449.4905487122164 -999828.77554610954
 17787.158988558662 2819.1425954280548 -999837.82155414717
 17116.653483231141 3228.2290596937751 -999848.28784704802
 16305.476309134183 3686.3397038902567 -999860.2614075226
 15320.38420547396 4211.4184781468621 -999873.7669237043
 14115.07364226081 4831.9491390797693 -999888.70228820515
 12624.42331502464 5588.9032747962938 -999904.6895060289
 10757.375586692206 6536.33918027649 -999920.7744319581
 8388.7375216187065 7738.6584753491088 -999934.86900287436
 5352.0297219950608 9260.9424168622936 -999942.79372542421
 1443.3109549439337 11144.617657886016 -999936.85518173932
 -3527.1708331459445 13351.67876015301 -999904.64132346131
 -9493.9066127050246 15642.62369829134 -999832.57301463396
 -15113.829016145333 17346.167280154135 -999735.30629520107
 -0 0 -0
 -0 -0 -0
 0 0 -0
 48138.413251856444 12487.003908046603 -998762.61839487858
 43997.310632169865 11684.167391968007 -998963.32109316846
 38251.419474639915 9601.4250287478935 -999222.01814491302
 33092.323052227177 7451.3754449912685 -999424.52199202345
 29122.678645428499 5578.7642714508529 -999560.27681061777
 26239.833919952202 4061.7048066456678 -999647.42468028062
 24204.557854856739 2891.0987046854339 -999702.84631350869
 22794.175232609596 2025.3846477941697 -999738.1274076195
 21831.340960360758 1414.4340086842637 -999760.6673240891
 21181.086023027849 1010.4860266109733 -999775.14497654687
 20741.896710993515 772.45369848639245 -999784.56531200476
 20437.426709858952 666.82308320612037 -999790.91160924977
 20209.996914977331 666.90181953091599 -999795.53473030659
 20015.702605548751 751.48627354853124 -999799.38333527034
 19820.745122343062 903.5466458200026 -999803.14145648398
 19598.675489279347 1109.2368873126566 -999807.31219200115
 19328.317805482708 1357.3112982976761 -999812.26929701655
 18992.162644316366 1638.9474969149605 -999818.28929520678
 18574.983660304719 1947.9079081639488 -999825.57260594238
 18062.402368601921 2281.0232317306491 -999834.25954189571
 17439.111293291284 2638.982702567756 -999844.44448503887
 16686.480657736938 3027.4596092397755 -999856.1875847812
 15779.259631389426 3458.5251557854585 -999869.51827187545
 14681.02168242388 3952.2476790525016 -999884.41699060577
 13337.873560555872 4538.1980865064388 -999900.74801802717
 11669.872539550142 5256.3693225830002 -999918.08897351939
 9559.7559063673289 6156.605414284566 -999935.35154868045
 6839.8397925412528 7294.9962955220553 -999949.99856025842
 3283.1640178987695 8724.1473104111647 -999956.55410009576
 -1376.331401419885 10470.746164209677 -999944.23303834209
 -7302.8429999352229 12480.763904766955 -999895.44404226181
 -13995.237587753996 14429.938250103218 -999797.93468828534
 -19269.590775324141 15027.692867708802 -999701.3810725807
 -0 -0 0
 0 0 -0
 47203.632278082987 10263.616075664679 -998832.55617986689
 42141.644505698598 9043.6451402746497 -999070.71535549092
 36186.096095754358 7182.679269220479 -999319.2560777883
 31247.950127225922 5404.8378309587242 -999497.05019117857
 27592.379397892098 3926.0742700173087 -999611.54782244738
 25017.284954043276 2763.829279628445 -999683.19816892059
 23253.71906444359 1884.0064424522818 -999727.82049385656
 22072.004111572925 1242.6143663249748 -999755.61140912597
 21296.719080547573 797.61189867204382 -999772.88099431025
 20798.389067159689 512.4648814176129 -999783.55877257558
 20481.970658874452 356.85552146513157 -999790.15874935745
 20277.202606532839 306.1881008942068 -999794.34950558748
 20131.478953129255 340.60483350450016 -999797.28322470805
 20004.803709623433 443.90079844491913 -999799.78534735681
 19866.267692911835 602.59222514659268 -999802.46463517169
 19691.591471954387 805.24665512539775 -999805.77754038118
 19461.397545911525 1042.1279273664718 -999810.06594999961
 19159.934117777204 1305.1284054832693 -999815.57977681432
 18773.997544792757 1587.9743375400578 -999822.4919222868
 18291.790947433477 1886.6622399708815 -999830.91114924429
 17701.450562332258 2200.130959709596 -999840.89637889375
 16988.942621201026 2531.1435074689821 -999852.47368857265
 16134.994237401221 2887.3747022036941 -999865.65348965162
 15110.625169925697 3282.633714474061 -999880.43951408041
 13870.724167317885 3738.1364640902329 -999896.80934926984
 12344.985234161484 4283.631488005055 -999914.62227574375
 10425.607748993931 4958.0926117900326 -999933.35978989967
 7952.1194857538821 5809.3667701270069 -999951.50635089027
 4697.7647356574325 6891.1918319624729 -999965.22063600982
 376.20690503188405 8252.0247076764044 -999965.88069623068
 -5265.4128305820468 9893.7518490817401 -999937.19257865008
 -12057.391779109565 11623.780206604502 -999859.7436826796
 -18148.43682419656 12738.463828660562 -999754.15266960708
 0 0 0
 -0 -0 0
 45680.74650529011 8715.3997009080049 -998918.07031746733
 40265.357853151938 7140.1743767063608 -999163.50957529864
 34402.88137492189 5415.8133603464412 -999393.37136022106
 29747.34655057175 3942.004117196524 -999549.6765927847
 26388.141614072483 2776.2616776632171 -999647.91719547566
 24072.520013196685 1886.5113947660784 -999708.43492238852
 22524.530988671817 1225.8126201264413 -999745.53906839748
 21518.727243475805 751.55572813499668 -999768.16289668286
 20886.164006068502 428.6770129553139 -999781.76838204567
 20503.746693014193 229.07882033073781 -999789.74984465726
 20282.033524956922 130.36802430589296 -999794.28990181314
 20155.356147589984 114.598055852217 -999796.85360869637
 20074.657110359291 167.14303328471155 -999798.46979534219
 20002.545049961544 275.76896312815933 -999799.89104970556
 19909.964782323706 429.92670361093366 -999801.68456819281
 19773.98945474617 620.29974476973473 -999804.28313208907
 19576.35416739044 838.58967168235813 -999808.01313295914
 19302.434263809111 1077.5363856033207 -999813.11000948027
 18940.402448182333 1331.1318452744838 -999819.72837262612
 18480.313269052236 1595.0215848966682 -999827.95216358185
 17912.843986544151 1867.0601010781302 -999837.80890047003
 17227.397323883379 2148.0261476728197 -999849.29002580896
 16409.207475506995 2442.4695348207001 -999862.37665620632
 15435.009137495414 2759.6961008844328 -999877.06472863769
 14266.698026260634 3114.8630657145782 -999893.37379318068
 12842.305037195823 3530.1982880294058 -999911.30251706752
 11063.651304085386 4036.3258089403853 -999930.64944214292
 8780.8212008684368 4673.6335754239672 -999950.52594027901
 5776.7067990808046 5493.0635901719907 -999968.22745072853
 1765.5112054351675 6553.4083824023546 -999976.96763913392
 -3545.3855057898854 7903.6677938941666 -999962.48043465067
 -10149.591999204667 9512.7830994726246 -999903.24168889073
 -16474.020981149919 11022.653502570216 -999803.53457190515
 -0 0 -0
 49522.17005681606 8414.0626609509582 -998737.58226192824
 45031.284021417647 7376.7294491234506 -998958.34113441233
 38692.34137398981 5623.9061852604418 -999235.34485035995
 32942.972925374575 4087.7438303541521 -999448.87357243814
 28558.36419509133 2893.2721868963431 -999587.93950835231
 25454.05476483838 1991.098925222997 -999674.01017586654
 23348.211827101568 1319.9463703725926 -999726.5219779138
 21967.704078789411 829.8104181074591 -999758.33649546362
 21095.430279801414 482.91510342458929 -999777.35002064984
 20570.226445355736 251.10112179407395 -999788.37897437729
 20275.199535537384 113.17634978887413 -999794.43060806638
 20125.628035382095 52.863678867624259 -999797.45763910259
 20059.330718375659 57.289506754389471 -999798.78974173754
 20029.73703726189 115.88445776650182 -999799.37797790731
 20001.156394249072 219.58664874533363 -999799.93274884578
 19945.662875981885 360.30703975798605 -999801.00055524777
 19841.099802884764 530.612303675818 -999803.00520112237
 19669.823056226378 723.61575663440533 -999806.26845463098
 19417.8737053185 933.03704577097403 -999811.01995458896
 19074.318547208673 1153.4230909339303 -999817.40332279308
 18630.501267266936 1380.4922435651897 -999825.48410394893
 18078.943511071233 1611.6021876528264 -999835.26370093215
 17411.594990469697 1846.313204380582 -999846.70199358021
 16617.085852884917 2087.06195363799 -999859.74847983522
 15676.542503995177 2339.9378338502452 -999874.37746251631
 14557.428870022024 2615.6116457253274 -999890.61393755116
 13204.763790873436 2930.4675949021021 -999908.51910207386
 11529.112574321931 3308.075557675289 -999928.06551239139
 9391.3314351916724 3781.1441571582013 -999948.75160816975
 6586.4001879571724 4394.0197351958486 -999968.65547032561
 2836.283085639097 5205.0747870659734 -999982.43119302823
 -2174.4749613138856 6285.3515426676549 -999977.88276272768
 -8611.4704905891449 7693.9329470052498 -999933.32076283812
 -15841.752457456281 9306.6725442833758 -999831.19811557687
 -21477.959548095314 10082.351964784732 -999718.48209008761
 49251.829219214007 5911.2118291796196 -998768.89964259113
 43918.005673222338 5214.4249960236866 -999021.53057361452
 37370.412200463114 4055.3986623271785 -999293.25327135948
 31806.728992725082 2972.1643059123994 -999489.61887061247
 27656.037361490384 2110.8153139361239 -999615.27001950622
 24752.895120928886 1459.4479375890005 -999692.53483000956
 22806.472808275161 977.33602850420948 -999739.42085542122
 21550.349131986844 627.63753976510043 -999767.5672492123
 20775.886271895826 382.34214088882362 -999784.08487238118
 20328.945978788073 221.01740943356776 -999793.32119528402
 20097.865625112721 128.71440213120937 -999798.00921482011
 20001.648830445298 94.196393098156761 -999799.94257406471
 19980.684310236127 108.63893276569597 -999800.36029803311
 19990.103758722933 164.71008298213337 -999800.16434400715
 19995.28525331524 255.95083375401853 -999800.04153671116
 19968.935702322698 376.37882105936853 -999800.53007882508
 19889.276320799749 520.28729118280012 -999802.05340285692
 19738.948924626133 682.19536586444519 -999804.93522728409
 19504.341235590768 856.94025689656837 -999809.40499995369
 19175.062463998998 1039.8734884097405 -999815.60081978596
 18743.320994922215 1227.1579396860841 -999823.57543792308
 18202.937333563816 1416.1330186068608 -999833.3099270619
 17547.705222734603 1605.7558322466277 -999844.73774162738
 16768.753762578715 1797.1010980387007 -999857.77954911836
 15850.498896801269 1993.9531500521389 -999872.38477495615
 14764.664575082481 2203.5111878407633 -999888.56840071443
 13461.771029046082 2437.2951676166676 -999906.41577751038
 11859.495167578521 2712.3348924856805 -999925.99506853579
 9827.7858899040111 3052.738220947509 -999947.04630488122
 7172.4927459849478 3491.461968094708 -999968.18201437511
 3625.3398281816822 4071.0705220576147 -999985.14153758052
 -1133.7600585285302 4838.0502075377071 -999987.65385294589
 -7343.6291783778879 5809.3899131389599 -999956.160088695
 -14702.277678582328 6844.578691495205 -999868.48873919295
 -21083.177089741406 7417.6862968909354 -999750.20758877741
 48886.321112495018 3633.9092828595617 -998797.73843927472
 43171.245094842496 3296.9451216253688 -999062.24718474166
 36506.547000773076 2689.8289584866566 -999329.79383497545
 31037.695896452555 2059.6778939206406 -999516.09249697032
 27032.219415666958 1524.9774892458638 -999633.39958062663
 24262.177689902743 1107.4651375632741 -999705.01661975891
 22423.468596460076 794.17216245035263 -999748.24698354932
 21251.740385958263 565.99097945732206 -999773.99605349777
 20543.629146792333 406.41375384119453 -999788.87477773987
 20149.890535750732 302.93663172370054 -999796.9244505578
 19962.600505505092 246.37109252701106 -999800.69708034419
 19903.392513416311 229.82998397819168 -999801.88144683687
 19914.400117847883 247.86226799968441 -999801.65794633597
 19951.839621163173 295.82652009997219 -999800.89847049117
 19981.701040853652 369.46738291163211 -999800.27761416801
 19976.991485153969 464.66916812751663 -999800.33201323054
 19916.057832764531 577.34195153061614 -999801.48895501893
 19781.618702817668 703.42936648057912 -999804.07718143577
 19560.198344743676 839.0023928125554 -999808.32898896129
 19241.702454836992 980.43535897873801 -999814.38058929052
 18818.879781484204 1124.6308529105306 -999822.27669182012
 18286.414406334276 1269.2958622008423 -999831.98385337403
 17639.356727904778 1413.2436428568383 -999843.41565898794
 16870.565680047395 1556.7386439204004 -999856.46998878289
 15966.754656795354 1701.8799746340362 -999871.07486429566
 14902.652174231085 1853.06926296809 -999887.23218795063
 13632.678810173404 2017.5878676142656 -999905.03519467067
 12079.533352703942 2206.3316982614233 -999924.60564505472
 10119.393447190241 2434.6160727317297 -999945.83379343094
 7564.8890369730598 2722.598068870604 -999967.67943449738
 4151.7613391179539 3093.6018196229766 -999986.59616295085
 -450.31658351887307 3565.3258338849646 -999993.54281248874
 -6537.3119590851356 4122.0265282770642 -999970.13577888906
 -13962.780274825898 4654.6871556586439 -999891.68146078719
 -20671.938823851364 4931.0127764201425 -999774.15252559003
 48641.050972007768 2008.7458499348365 -998814.30361226248
 42778.791558493693 1884.0536050476726 -999082.79203217593
 36043.151346579274 1633.3184822458763 -999348.89979013009
 30601.116454409734 1348.2818140923926 -999530.76681405515
 26662.594919570467 1090.3687484686743 -999643.89515874453
 23962.407815703791 880.76448616491382 -999712.47229670652
 22183.364541803399 719.80488125653733 -999753.65976751398
 21059.450779669714 601.26837199598845 -999778.04437245149
 20389.337309227751 518.50620727999967 -999791.98140183312
 20026.36552137374 466.16817049598939 -999799.34355411597
 19864.760983815606 440.25473619558272 -999802.57923593244
 19827.69106954629 437.71289647933133 -999803.31619487586
 19858.279839048879 456.01919389834035 -999802.70092070091
 19913.313325749361 492.85780886298545 -999801.58883829089
 19959.052137765291 545.91802783815308 -999800.64923527092
 19968.57925578285 612.7859085096851 -999800.4202519299
 19920.217799142851 690.92581614926519 -999801.33403809345
 19796.643227044569 777.7224777211751 -999803.72477036144
 19584.391217140026 870.58237690356248 -999807.82838852564
 19273.492241807231 967.06465197989291 -999813.78130268026
 18856.986501769828 1065.0425366059862 -999821.62396322831
 18330.055788721274 1162.8673467428976 -999831.31416970363
 17688.495221636382 1259.5435089035423 -999842.75298015901
 16926.193370643778 1354.8969300925728 -999855.82372274459
 16031.234775424189 1449.7610075219304 -999870.44045946072
 14980.133641933462 1546.179837210768 -999886.59603176021
 13729.610440575316 1647.664113461313 -999904.38692913018
 12205.246305111399 1759.4804319678674 -999923.96520497545
 10286.554967461079 1888.8904101085816 -999945.3079443496
 7789.1021671448325 2044.9340259219546 -999967.5735403921
 4448.3222850393249 2236.6529991247194 -999987.60482928471
 -76.910288271662438 2467.2191278397627 -999996.95345265057
 -6116.5985928445971 2720.3156486004732 -999977.59330118285
 -13582.021959335132 2940.7945606961594 -999903.43554107659
 -20414.093817781501 3041.1653820679603 -999786.98535573948
 48563.988889522079 775.20582924208009 -998819.77255111479
 42655.91127913072 786.34976699927154 -999089.51295016159
 35887.211405654612 782.72604012901218 -999355.54003441264
 30442.511717916364 767.30930955539327 -999536.22481465293
 26518.829300984973 746.99666269680415 -999648.03490453144
 23837.962799381523 726.50777847764516 -999715.5714081995