# OOMMF OVF 2.0
#
# Segment count: 1
#
# Begin: Segment
# Begin: Header
#
# Title: Oxs_TimeDriver::Magnetization
# Desc: Oxs vector field output
# Desc:  MIF source file: /mnt/gpfs/work/plgrid/groups/plggspinsym/MF/switching-obrazki/p-ap/Anisotropy.mif
# Desc:  Iteration: 50100, State id: 350850
# Desc:  Stage: 0, Stage iteration: 50100
# Desc:  Stage simulation time: 7.3749e-09 s
# Desc:  Total simulation time: 7.3749e-09 s
# meshunit: m
# meshtype: rectangular
# xbase: 1.0000000000000001e-09
# ybase: 1.0000000000000001e-09
# zbase: 3.4999999999999998e-10
# xnodes: 35
# ynodes: 35
# znodes: 5
# xstepsize: 2.0000000000000001e-09
# ystepsize: 2.0000000000000001e-09
# zstepsize: 6.9999999999999996e-10
# xmin: 0
# ymin: 0
# zmin: 0
# xmax: 7.0000000000000005e-08
# ymax: 7.0000000000000005e-08
# zmax: 3.4999999999999999e-09
# valuedim: 3
# valuelabels: Magnetization_x Magnetization_y Magnetization_z
# valueunits: A/m A/m A/m
#
# End: Header
#
# Begin: Data Text
 -0 0 -0
 0 0 -0
 -0 -0 0
 -0 0 0
 0 0 0
 -0 0 -0
 0 0 0
 0 -0 0
 -0 0 0
 0 0 0
 0 0 0
 -0 -0 0
 0 0 0
 19400.607034865166 31817.827547598052 -999305.37989987328
 16963.580944315996 31160.84759817208 -999370.42106443667
 14741.625247963457 30474.577624811751 -999426.82803877047
 13018.850714602195 29990.361656910733 -999465.40096881706
 11517.138705781796 29752.27812900515 -999490.9491647064
 9915.3414659010487 29774.140278758881 -999507.47199522005
 7900.8997326312119 30071.432871055207 -999516.52548044291
 5254.7224574974853 30619.430277139581 -999517.30269235373
 2473.4988551150827 31187.202050208805 -999510.50031087373
 0 0 0
 -0 0 -0
 -0 0 -0
 -0 0 0
 0 -0 0
 -0 0 0
 -0 -0 0
 0 0 0
 0 -0 0
 0 -0 -0
 0 -0 0
 -0 -0 0
 0 0 -0
 -0 -0 -0
 -0 -0 -0
 -0 -0 -0
 -0 0 -0
 0 0 -0
 0 0 -0
 -0 -0 0
 0 0 0
 0 0 -0
 0 0 0
 24564.676392035224 29921.364975119577 -999250.36331831291
 22417.891413268091 28317.333560911229 -999347.5705501982
 20667.751287015861 26237.40679516994 -999442.06562531809
 18788.906893033047 25690.859375406351 -999493.35001405468
 16494.167328603246 24552.727370732195 -999562.45728958561
 14553.928965356054 23713.181641488223 -999612.85914503376
 13020.273368367081 23206.985922612705 -999645.89144646667
 11665.494339187244 22996.629046131242 -999667.4803625138
 10234.061440982619 23084.674693131521 -999681.13005134533
 8490.1628280636396 23523.875408231477 -999687.22329583229
 6299.4211050511803 24402.626014576712 -999682.36412239145
 3974.2695288991458 25674.284532332193 -999662.46118150523
 2553.8662731377494 26217.300252585734 -999653.00526458933
 594.2251907919873 27790.141238963595 -999613.60282178072
 -2035.3684767294562 28957.892210508493 -999578.56007113738
 -0 0 -0
 0 -0 0
 -0 0 -0
 0 -0 -0
 -0 0 0
 -0 0 0
 -0 0 -0
 -0 0 0
 -0 0 -0
 -0 0 0
 0 -0 -0
 -0 0 -0
 -0 0 0
 -0 0 0
 -0 -0 0
 0 0 -0
 0 -0 -0
 -0 -0 0
 29438.161369367004 27603.955428734796 -999185.3763440894
 26719.434259689151 25656.419912334441 -999313.67445368448
 23833.373032919244 24325.301323869466 -999419.95679762994
 21189.101284178276 22146.443521274265 -999530.16814207658
 19156.288794069274 20029.800273862747 -999615.84806395869
 17350.606219894409 18489.740216176997 -999678.49130134855
 15603.361196344727 17264.838921376744 -999729.19356013369
 14116.287710269351 16450.618618755474 -999765.02617782215
 12887.74061611397 15987.793955534062 -999789.126059214
 11779.629765280843 15822.95356209543 -999805.41830056324
 10627.066271172938 15954.008267671381 -999816.25065942144
 9286.3419646869861 16430.35171178235 -999821.88783579948
 7692.682637306435 17330.477024028998 -999820.22243999504
 5960.0348683009133 18658.288422395388 -999808.15472645301
 4265.2035588878871 20149.541699654772 -999787.87950639566
 2063.2782242919516 22027.787475987734 -999755.22977470933
 -852.92661667065215 24028.859484249402 -999710.90142504312
 -3773.8679028026095 25152.177592559732 -999676.51061901252
 -6859.2899611924822 26527.256111119052 -999624.5569334738
 -0 0 -0
 -0 -0 -0
 0 0 -0
 -0 0 0
 -0 0 -0
 0 0 -0
 0 -0 -0
 -0 -0 -0
 -0 -0 0
 0 0 0
 0 0 0
 0 0 -0
 -0 0 0
 0 0 0
 -0 -0 -0
 31679.360743664267 23793.834899589358 -999214.82751390536
 28397.523103719337 22577.112769062998 -999341.71065786434
 24820.431306053411 20030.216507230289 -999491.23888929351
 21816.520425826813 17690.605969727985 -999605.46311879123
 19406.775649997267 15541.861555503125 -999690.86601722019
 17556.648544388307 13731.714386486314 -999751.57119751372
 16047.548054948686 12345.052560887301 -999795.01693031704
 14745.459703976674 11324.791492876288 -999827.14531851001
 13648.10897321288 10651.164264698029 -999850.12968007463
 12718.248939979951 10273.612417293984 -999866.3405834802
 11868.940838345105 10154.426956679425 -999878.00048633805
 10999.039228811647 10290.329193200536 -999886.55869610468
 10020.720589082717 10710.732597701366 -999892.42689706176
 8883.1220273114213 11458.405609151141 -999894.89201812807
 7579.8551367475202 12545.084193780955 -999892.57755954831
 6063.7960484642344 13926.740215760172 -999884.63148727594
 4084.6878359504749 15670.232826334108 -999868.87096681411
 1471.1994864059702 17760.928601605134 -999841.17988172488
 -1748.7191176115796 19988.597404623109 -999798.67871249153
 -5622.2190838258466 22345.10359725968 -999734.50825596775
 -8949.764234798793 23471.629583338166 -999684.4423741143
 -0 -0 -0
 0 -0 0
 -0 0 -0
 -0 -0 -0
 0 -0 -0
 0 -0 -0
 0 0 -0
 0 -0 -0
 -0 0 -0
 0 0 -0
 -0 0 0
 -0 0 0
 -0 0 -0
 32984.866078598607 21426.004894531245 -999226.16305020591
 29807.141905137771 19583.341255962059 -999363.81115022337
 25861.440157913024 16869.885239878513 -999523.18276513834
 22433.270210529528 14233.249804091642 -999647.01919611392
 19769.431734000074 12031.55480197311 -999732.16976246284
 17746.52344948479 10228.58306465235 -999790.1964882164
 16216.8462245224 8794.9414107968278 -999829.81697092403
 15021.437980445882 7705.7657991979113 -999857.47863105347
 14049.702028045129 6918.5467003442409 -999877.36227223289
 13247.16060913014 6398.5949339991867 -999891.77950349532
 12564.253926666832 6109.8100826081163 -999902.40010914102
 11939.482361711711 6027.8415409539393 -999910.55294325785
 11306.995649929086 6148.8306627119191 -999917.16843489278
 10606.713052165009 6487.7866289112653 -999922.70014380943
 9789.4823922083306 7068.5431035405109 -999927.09820910753
 8807.8987700668786 7909.7908184729731 -999929.92560902191
 7579.1059727639322 9027.7461271161446 -999930.52606294502
 5949.6057623150382 10475.775577090502 -999927.42752528365
 3760.3993625367634 12304.997951710022 -999917.21978473931
 875.77367339738441 14541.552588242244 -999893.882503937
 -2794.0187327064245 17222.431257198659 -999847.77907485131
 -6820.4941864662524 19958.106955494262 -999777.55267149594
 -9841.7735421265315 21670.165272265509 -999716.73159481469
 0 -0 -0
 -0 0 -0
 0 0 0
 0 0 -0
 0 -0 0
 -0 0 0
 -0 0 0
 0 -0 0
 -0 -0 -0
 -0 -0 -0
 0 0 0
 34079.149441464295 20034.488924725272 -999218.30989372462
 30882.943290954088 17790.243184697454 -999364.67371081153
 26831.57093379381 14713.032668148771 -999531.68707696826
 23151.185211839107 11881.64571778296 -999661.36722308339
 20222.982579784839 9553.3017954444476 -999749.85141303367
 18017.493165071755 7719.2520134029655 -999807.8730878249
 16381.221093919477 6287.6120600068789 -999846.04891455907
 15164.079250532341 5184.6815052824686 -999871.57664280687
 14239.508205259093 4358.3747535646053 -999889.11433997517
 13515.867578164485 3766.8265991283665 -999901.56132540456
 12932.765940281166 3377.4875043922398 -999910.66408119258
 12441.845138436258 3164.1534088419953 -999917.59091574978
 11995.951753947824 3110.3697205767862 -999923.20842238585
 11548.137436543164 3212.2975308497166 -999928.15825254144
 11053.125191212253 3477.7864875278378 -999932.86445873696
 10465.941638600034 3922.5925371228122 -999937.53671587165
 9733.6962807606142 4567.3851505625053 -999942.19540411443
 8779.6931458132694 5442.2526524381256 -999946.64801394904
 7492.2904746249123 6598.981545593977 -999950.15827090363
 5737.4268357580859 8106.916441665654 -999950.67870326119
 3369.9305824750286 10051.436414416235 -999943.80451797193
 268.42064817911961 12525.027275366383 -999921.52274171333
 -3508.0438475611786 15487.927417160203 -999873.90091585275
 -7486.7853375657351 18548.329874868599 -999799.93373882677
 -10444.126546532432 20531.138588695314 -999734.66108209547
 0 -0 0
 0 0 0
 0 -0 -0
 0 -0 0
 0 -0 -0
 -0 -0 0
 0 -0 -0
 0 -0 0
 0 0 -0
 35463.504304366383 19033.899603568221 -999189.69696866639
 32050.813734955267 16653.580476299001 -999347.48891276377
 27805.87596373288 13386.535557559488 -999523.70353466657
 23927.936240406245 10369.673826751226 -999659.90403336752
 20784.176006160251 7917.6329713724745 -999752.63396295975
 18384.119874290915 6012.1988885323271 -999812.92130126641
 16607.572209477054 4554.9157625039161 -999851.70964883768
 15307.812272427622 3444.8595711219136 -999876.89433548145
 14356.001355908604 2605.9843975367157 -999893.55136953911
 13650.1484909215 1985.2899543905271 -999904.86150932009
 13114.965027614855 1544.9128809290285 -999912.80166648282
 12696.301397989322 1257.4569103566816 -999918.60805414082
 12351.679793781963 1103.2859791245394 -999923.10642684926
 12043.413540761714 1070.613414802782 -999926.90231696551
 11735.582683163006 1156.0735702464099 -999930.46737910062
 11392.369589014554 1364.3277053737768 -999934.1740960048
 10975.183777267001 1707.1329282320851 -999938.31361650524
 10437.010029041046 2203.601922649043 -999943.10486158193
 9714.5488990999274 2883.6470916899111 -999948.65474140085
 8722.3058061481624 3793.7432524977112 -999954.76342360512
 7352.9233979854998 4999.614414953011 -999960.46840522916
 5480.543182186695 6588.0337710798249 -999963.28005455236
 2976.5852999192716 8659.1969807677542 -999958.07824508345
 -239.47332529362541 11278.183997248027 -999936.37058477406
 -4106.7942612681582 14375.030953009797 -999888.24011786201
 -8207.5460214474751 17508.503101221071 -999813.02677423658
 -11360.78035767738 19478.064555694396 -999745.73651045328
 0 -0 0
 0 -0 0
 0 0 -0
 0 0 -0
 0 0 -0
 0 -0 0
 -0 0 -0
 37699.31233623984 17911.400357387934 -999128.59211745707
 33765.613086100544 15696.113110340797 -999306.51724390697
 29097.014906368095 12465.002324186329 -999498.86815373495
 24892.202755209746 9397.4672812237641 -999645.97025681648
 21488.479923963823 6866.7019504759619 -999745.5144359892
 18873.621516181604 4895.6787937068193 -999809.89129934739
 16927.135864586591 3396.3023924879503 -999850.95749390579
 15506.496596545576 2265.2174461572349 -999877.20113683096
 14480.614630602915 1414.5992126628203 -999894.14975235623
 13742.165677974495 779.458233178098 -999905.26817661175
 13208.313388125609 314.30518376901995 -999912.71702568745
 12817.270889300302 -12.521890843100383 -999917.8553312032
 12523.086589040633 -223.08868308258965 -999921.55819030269
 12289.737827595902 -332.36478701516603 -999924.42308295332
 12086.4093114307 -349.11081263587511 -999926.89574368228
 11884.405359205524 -276.07522064340486 -999929.339849437
 11654.780448679005 -110.12391401958938 -999932.07467578351
 11365.523196360979 157.84148554906764 -999935.39789755351
 10977.646805099062 543.85395876748464 -999939.59592242073
 10440.436539157479 1073.3153146815364 -999944.92112271208
 9687.1189111660078 1784.4556869512112 -999951.48654577334
 8632.0380190661144 2731.3179493251023 -999959.01307098439
 7169.2245902515142 3985.6216871642059 -999966.35795337695
 5175.2287569563259 5633.2921702054646 -999970.74108527717
 2522.3196261812318 7756.063398080868 -999966.74013902503
 -889.43923689143378 10388.777936491555 -999945.63961788942
 -5041.9377959654712 13417.41562061239 -999897.27063400135
 -9555.8895818623696 16353.167410833834 -999820.61335518188
 -13249.202081908928 17974.354639832847 -999750.65952440072
 0 0 0
 0 0 0
 -0 0 0
 0 -0 0
 -0 0 -0
 41244.656480446713 15901.685811661064 -999022.52962591266
 36550.458190336532 14454.04881437778 -999227.27368649619
 31108.547320242564 11601.789721024148 -999448.67640059115
 26310.170867118039 8673.0728116236442 -999616.20270829299
 22479.985219959777 6165.5324904790305 -999728.28132128948
 19557.623199147976 4172.2402268426031 -999800.02589832421
 17385.241931775428 2642.1681382535257 -999845.37420068227
 15800.02577960686 1486.3652809621869 -999874.06702225015
 14659.97777684006 619.11685135519087 -999892.34507816227
 13849.498750739527 -28.946277695799196 -999904.09067393385
 13278.462578334889 -509.15700222703703 -999911.70769758604
 12878.484190553494 -857.80253755241642 -999916.70094051352
 12598.355304558032 -1100.0887168258828 -999920.03242681117
 12399.418152581376 -1253.3285667527457 -999922.3387828581
 12251.272470881975 -1328.9856401185559 -999924.06717710942
 12128.268633858459 -1333.6915854235388 -999925.56041272392
 12006.846014666182 -1269.6297213748303 -999927.10918804002
 11863.27219504789 -1134.572694024547 -999928.98523726582
 11671.243587220824 -921.54984260940171 -999931.46406092017
 11398.977435106835 -617.92114385046125 -999934.83862044441
 11005.787881866569 -203.69953527471799 -999939.41373445163
 10438.373957646554 350.67194431458876 -999945.45720169542
 9626.9692529504318 1086.5253182860345 -999953.06936162512
 8481.2195350509955 2058.4344150871625 -999961.91515625094
 6886.3703816518728 3332.9717403927148 -999970.73417292803
 4701.5158074941182 4981.0038421517638 -999976.54239978862
 1764.8125386059482 7057.7144599826788 -999973.5367014996
 -2075.8194466163809 9554.3777786056271 -999952.20127708535
 -6854.8805098042321 12285.563251246464 -999901.03287715232
 -12181.324205466504 14646.161723550249 -999818.53617912531
 -16613.840176726721 15320.21231908687 -999744.60309074959
 0 0 0
 -0 -0 -0
 0 -0 -0
 0 0 -0
 39391.657032201896 12793.673921111671 -999141.94149973406
 34038.709544904239 10634.969572568711 -999363.92954454198
 28481.584050801819 8019.3688117059119 -999562.14869002474
 23983.105210447546 5640.1946318777364 -999696.45336420939
 20576.883220201045 3685.7313817158888 -999781.47975501313
 18065.921082194978 2155.090794470068 -999834.47534035356
 16243.491565789265 985.64063064805771 -999867.57997961878
 14937.657002899901 103.40758378675758 -999888.42163020128
 14014.129994932435 -557.72307701739476 -999901.64171555091
 13370.464945781998 -1050.3046097102879 -999910.05971905321
 12929.504618794945 -1413.3982674764661 -999915.41153022018
 12633.54205425789 -1674.9021220111697 -999918.79086156038
 12439.370517213529 -1854.2995988927055 -999920.90868934884
 12314.145252539854 -1964.9372516207291 -999922.24740141502
 12231.949913908245 -2015.5802873569653 -999923.15546616318
 12171.043220221847 -2011.2896333500732 -999923.90731542278
 12111.640788580322 -1953.8005448940044 -999924.74257858004
 12033.96848903966 -1841.540459956778 -999925.89341967681
 11916.252120339344 -1669.3113449130642 -999927.60554704058
 11732.398403542737 -1427.5753571399291 -999930.15398891759
 11449.191548459314 -1101.3170745549137 -999933.84936884081
 11022.890430569956 -668.58132819087098 -999939.02258365869
 10394.979669209184 -98.944711612953256 -999945.9658439653
 9486.7054105186799 647.64671741059067 -999954.7904651406
 8192.1057848345135 1620.7431052385355 -999965.13068936416
 6369.8363229828938 2876.2513602880495 -999975.5758833969
 3836.3457338426792 4467.1342735869912 -999982.66343111778
 371.52074563701717 6420.5332848953258 -999979.31914848764
 -4224.0459848777509 8685.2070620138238 -999953.36121931579
 -9874.5714760053197 11016.283934799671 -999890.5611747884
 -15200.866764054746 12754.736190436568 -999803.10579350276
 -0 0 -0
 -0 -0 -0
 0 0 -0
 43510.896792056024 10939.612419452978 -998993.05640252738
 38149.162697514308 9757.591343267326 -999224.41463199665
 31733.341289963359 7458.5225265106164 -999468.54152209114
 26278.093673121799 5225.335728177336 -999641.01439438469
 22133.671426885005 3340.8374299983834 -999749.43830663548
 19103.325877874628 1836.3743331881708 -999815.82837526232
 16923.717570772798 670.17193620348883 -999856.55903892568
 15372.579753422366 -218.62450918132549 -999881.81101320614
 14280.722852561064 -889.31360095129332 -999897.62979823467
 13523.137924204999 -1392.0417806128028 -999907.5892103049
 13008.050800127299 -1766.0654988240019 -999913.83210106404
 12667.993574330932 -2040.6108311355936 -999917.6755344593
 12453.096757109941 -2236.713340139851 -999919.95554373832
 12326.101343252154 -2369.16182458701 -999921.22404613695
 12258.586184526343 -2448.1147894175865 -999921.86384673801
 12228.071644058651 -2480.2432156894838 -999922.15829906426
 12215.747893060656 -2469.4201499836799 -999922.33571789763
 12204.630956821915 -2417.038204896045 -999922.5994593401
 12177.903643145371 -2322.0342226687044 -999923.15045703738
 12117.218905608252 -2180.6480884018633 -999924.20601759036
 12000.726466482221 -1985.914433119349 -999926.01661729999
 11800.617594128371 -1726.8867118349942 -999928.87911425054
 11479.909047643865 -1387.6426837233823 -999933.14083294605
 10988.101112286804 -946.17746859965746 -999939.18134161748
 10255.16490206311 -373.38286191278718 -999947.34470274497
 9183.2828529225226 367.50516185223915 -999957.76523611206
 7636.0337466526898 1320.2871618544295 -999969.97346441867
 5426.3476409950235 2532.6634338174617 -999982.07002286275
 2310.5732112136834 4047.6336403157416 -999989.13889769278
 -1983.4770738982161 5882.6285668726423 -999980.73006425542
 -7597.0186911460605 7974.6171486078238 -999939.34355456778
 -13955.337480823926 9981.0437700192397 -999852.80282702472
 -18832.914589720604 10602.364941303604 -999766.4283149878
 -0 -0 0
 0 0 -0
 41913.69320810715 8442.6220666896515 -999085.56413066818
 35975.007157864602 6913.6461832762971 -999328.77490665892
 29588.626176727477 4908.7463545738437 -999550.10750347085
 24463.073028106319 3098.7590336446137 -999695.93164645473
 20679.032538964708 1626.6219881053491 -999784.84271075053
 17967.915835440224 474.04025055607906 -999838.45159424189
 16051.395951065875 -411.8025085271608 -999871.08324359311
 14709.659934257495 -1085.3078074487762 -999891.21808903862
 13781.472543090928 -1593.6760082491196 -999903.76097468764
 13150.987282229049 -1974.9293825772211 -999911.57168393477
 12735.026966694988 -2258.2873846303805 -999916.35611497331
 12473.397736562871 -2465.4346974815721 -999919.164723158
 12321.992962930866 -2612.0378620333572 -999920.6697271684
 12247.929807779317 -2709.1713945784777 -999921.3212077131
 12226.08310664127 -2764.4745952912072 -999921.43719998386
 12236.539946074154 -2782.984074632956 -999921.25794473861
 12262.668115457256 -2767.6524208209948 -999920.98041333654
 12289.540388436064 -2719.6022228636971 -999920.78234267654
 12302.516253961505 -2638.1566291108898 -999920.84097863548
 12285.76141886098 -2520.6748373185692 -999921.35003945348
 12220.511936257826 -2362.1973985703353 -999922.5365554404
 12082.830433919355 -2154.9074802669379 -999924.67795452289
 11840.565083934884 -1887.4170831379199 -999928.11675402301
 11449.072282675319 -1543.9051255626041 -999933.26532365615
 10845.147017259227 -1103.1510096498148 -999940.58115671249
 9938.475085796319 -537.55686999939451 -999950.46764606319
 8600.1394815377425 187.64456660072327 -999963.00051072612
 6648.9255817948679 1114.467546860554 -999977.27461712586
 3840.8411480266104 2289.8028513959125 -999990.00232111197
 -117.5451012972302 3754.2637827198569 -999992.94581841864
 -5463.9659664695018 5498.1348767049467 -999969.95734311675
 -11979.057911993094 7308.3742661091765 -999901.5400713851
 -17751.666387406716 8474.1593293361238 -999806.51476379728
 0 0 0
 -0 -0 0
 39919.428128786545 6417.5461143693246 -999182.29285738466
 33894.11886960343 4707.7938790785593 -999414.34119330358
 27782.921390732819 2949.8596352103741 -999609.62760826224
 23013.71098952433 1492.6166580229512 -999734.03523237247
 19549.065688189479 351.00804101304203 -999808.83714041754
 17098.593339327326 -526.37416136407978 -999853.66981176729
 15388.146294847767 -1195.0574142763246 -999880.8813010602
 14207.226400624599 -1702.0733728795885 -999897.62359165307
 13403.958292676825 -2084.7554557711251 -999907.98961543338
 12870.719745717886 -2371.8498450036145 -999914.35578330408
 12531.170695911822 -2584.9839942250983 -999918.14045887755
 12330.585694082769 -2740.0894010765046 -999920.22110092116
 12229.083491846261 -2848.6770267730039 -999921.16417052923
 12196.977710582656 -2918.9082521137934 -999921.35376205621
 12211.552686004048 -2956.4344881263169 -999921.06562273926
 12254.780222413276 -2964.9984758362129 -999920.51141365163
 12311.613709408581 -2946.8193377696325 -999919.86700118147
 12368.619747704775 -2902.7874683600694 -999919.29227835697
 12412.725208165126 -2832.5000859906977 -999918.9473133157
 12429.906430033179 -2734.1520340803677 -999919.00763951649
 12403.606474296674 -2604.2910045332433 -999919.68088181701
 12312.662593209034 -2437.4320365444441 -999921.22552975803
 12128.420200171511 -2225.5236176861995 -999923.97134385945
 11810.631026957759 -1957.243420980386 -999928.33652864164
 11301.562739671503 -1617.0904913639793 -999934.82772527926
 10517.679457480726 -1184.2210012521718 -999943.98645096598
 9338.3553782384424 -630.97916706090189 -999956.19753273239
 7592.0736655424198 78.800965249732272 -999971.17668854073
 5044.0327277509195 990.99364617330275 -999986.78774543537
 1400.2705578891705 2158.6149311809922 -999996.68980649323
 -3620.6449921126796 3623.7684700366594 -999986.87952988513
 -9967.1186983411917 5347.0653923829659 -999936.0306722339
 -15998.070675805022 6954.371120355353 -999847.83765179606
 -0 0 -0
 45455.892460427531 5771.3374782655701 -998949.67516103515
 39470.536551828482 4602.7839951256119 -999210.13361745153
 32395.271062869768 2864.3322311576339 -999471.03110276931
 26397.416414483945 1392.0651323176216 -999650.558225877
 21903.659881566477 254.49223303050184 -999760.05367162765
 18691.274217456863 -609.62694129681438 -999825.11701953178
 16443.256647237806 -1264.101818619773 -999864.00143090717
 14890.247115262977 -1759.6809257516907 -999887.58571345708
 13831.050117764193 -2134.7045206388489 -999902.06774926197
 13122.195150005045 -2417.8025522914486 -999910.97715009796
 12662.816872092084 -2630.2477589592108 -999916.36393529945
 12381.846801006744 -2787.7325739238904 -999919.45596477541
 12228.60245621871 -2901.7121933717863 -999921.01755504403
 12166.263753724803 -2980.4398980019528 -999921.54642466304
 12167.434489433033 -3029.7700422393777 -999921.3839254746
 12211.12717241869 -3053.7619137963429 -999920.77831763902
 12280.657558369718 -3055.1115537797982 -999919.92266547424
 12362.110535821816 -3035.4297910704709 -999918.97891233361
 12443.105598382896 -2995.3907955075947 -999918.09502431215
 12511.676923321083 -2934.7655320986396 -999917.41913611954
 12555.071105180885 -2852.3539146038447 -999917.11369827518
 12558.291615953804 -2745.8152094512038 -999917.37149152684
 12502.147777668908 -2611.3917707786491 -999918.43514056935
 12360.531221416275 -2443.5043911882494 -999920.62012652541
 12096.504618897614 -2234.1841933327669 -999924.33863617643
 11656.696780952201 -1972.2771361673172 -999930.11332945421
 10963.368596758308 -1642.3257978787587 -999938.55176955007
 9903.644215109387 -1222.9977090581638 -999950.20981440076
 8316.1223630569239 -684.94311617970163 -999965.18587487354
 5977.8077068818629 11.828351731663298 -999982.13267793425
 2602.5710141998447 920.09105169893712 -999996.19002102828
 -2112.6668376296889 2102.6443090950443 -999995.55775300448
 -8282.5299284543198 3602.2542160541402 -999959.2108993982
 -15178.266093137114 5253.5186357826724 -999871.00206994161
 -20388.327658143109 5970.7129806224448 -999774.30787243554
 44716.30514346066 3129.830449897016 -998994.82291735231
 38268.121875807417 2279.4830217345134 -999264.90722192987
 31136.580588930356 1107.2626735372576 -999514.52581670904
 25346.809838099278 75.216101687959622 -999678.71517481527
 21081.483404230014 -733.51119585547815 -999777.49175444187
 18061.120500160639 -1348.6384187030051 -999835.97509826301
 15963.710516992669 -1813.8545321212578 -999870.92660916282
 14526.754861306275 -2165.876003175797 -999892.13536978001
 13557.081466221676 -2432.4301794441635 -999905.13991355198
 12917.912270942919 -2633.8975846288226 -999913.09128647472
 12513.524900495373 -2785.1649762718703 -999917.82389885397
 12276.711281400805 -2897.0725632099034 -999920.44150056085
 12159.671504888518 -2977.4683638866827 -999921.63546501752
 12127.723147740357 -3031.980883228865 -999921.85965863126
 12155.058151997646 -3064.5895326116206 -999921.42833940627
 12221.875218550784 -3078.0455461138417 -999920.57254651876
 12312.413875268321 -3074.1692965839243 -999919.47373160988
 12413.525644510872 -3054.046875878606 -999918.28525072662
 12513.545787720333 -3018.1375244511164 -999917.1475765889
 12601.252243891664 -2966.3056626135772 -999916.20122518344
 12664.755403573648 -2897.7804329419614 -999915.59985787293
 12690.121371080437 -2811.0446924373382 -999915.52585572179
 12659.532140152802 -2703.642275637189 -999916.20977181767
 12548.684825761133 -2571.8856159438074 -999917.95459103654
 12323.071424811795 -2410.4268623056537 -999921.16276884568
 11932.626075223932 -2211.6385101724513 -999926.3578334403
 11304.163949872855 -1964.726091393346 -999934.17569797055
 10331.057047615521 -1654.492865469718 -999945.26445882884
 8860.2144503905438 -1259.7511258116422 -999959.95401165634
 6678.5642728710918 -751.73064664185381 -999977.41558511625
 3507.8407073281646 -94.13443622715829 -999993.84307718626
 -964.766782486426 748.90273097798411 -999999.25418459927
 -6941.221001983613 1774.9097415897006 -999974.33424383972
 -14046.837398477954 2816.0113577298962 -999897.37295341154
 -20093.235436078448 3362.3237894109843 -999792.45679713204
 43939.971904397164 734.31917574814634 -999033.90315063321
 37334.940223065685 262.45252226452072 -999302.77361629193
 30252.66827557479 -403.58163144200239 -999542.20180244255
 24619.640912234776 -1028.3782564647529 -999696.36176166718
 20514.138364408675 -1536.8403759036614 -999788.3817332671
 17626.621900888786 -1930.4880717132062 -999842.77534828836
 15633.145094178892 -2230.7301559314078 -999875.30653448775
 14276.387627542987 -2459.1070578276922 -999895.06326853437
 13368.922769511175 -2632.7578429384835 -999907.16593598016
 12778.678525936937 -2764.4219320491734 -999914.5280205264
 12413.469479781972 -2863.3763515241408 -999918.85013302159
 12208.686873625553 -2936.3290121890914 -999921.15986049315
 12118.427561818009 -2988.1004506073414 -999922.10445070476
 12109.398445990186 -3022.119062470324 -999922.11159952288
 12156.80627704498 -3040.7840805788569 -999921.47976394522
 12241.6056862486 -3045.7297262191287 -999920.43014464772
 12348.612945031609 -3038.0158157269889 -999919.13783977414
 12465.159072209641 -3018.2550970337224 -999917.75159033632
 12580.016854522239 -2986.6890978977717 -999916.40793827013
 12682.426244469543 -2943.2151888721755 -999915.24318259372
 12761.031538737667 -2887.3697925850588 -999914.40592170111
 12802.574874981659 -2818.2634535021039 -999914.07204203156
 12790.121452863747 -2734.4624560235402 -999914.46409595339
 12700.566296866302 -2633.8004191352857 -999915.87581710634
 12501.04164087652 -2513.0971605153272 -999918.70084550104
 12143.762044293213 -2367.7499156017934 -999923.45847257168
 11558.694934444973 -2191.1616276183681 -999930.79529642186
 10643.476361542904 -1974.0014158601107 -999941.40814817336
 9250.3618695554705 -1703.4350620357061 -999955.76357870514
 7171.6748606807569 -1362.9262165927719 -999973.35440091637
 4130.349266637415 -934.51226820702811 -999991.03341067815
 -202.52984858981068 -408.63048478221896 -999999.89600138832
 -6095.1065463453324 188.12492482322187 -999981.40696975042
 -13325.868289971546 741.34501129976741 -999910.93185437901
 -19728.946176187357 1041.548883471532 -999804.82288229675
 43400.965864239384 -1111.6280608752168 -999057.11570715776
 36762.238024161496 -1342.9467684926988 -999323.13810370257
 29726.544652512741 -1657.8616477695189 -999556.69375867769
 24185.939799828335 -1958.8172738085646 -999705.55832749407
 20174.188145219454 -2208.9587256861332 -999794.04010727629
 17365.260701452869 -2405.8537074876185 -999846.31798527355
 15433.759049920196 -2558.1430106610692 -999877.62000453135
 14125.371104461086 -2675.4590343765208 -999896.6525647121
 13256.08002251801 -2765.6501193232339 -999908.30955735827
 12696.564479483552 -2834.5675545237223 -999915.37765812816
 12356.664897068895 -2886.4545189354371 -999919.48736532358
 12173.223814917737 -2924.3536394409543 -999921.62731773301
 12101.38041844546 -2950.4182526595118 -999922.42280294048
 12108.586576661266 -2966.1407368023793 -999922.28905062668
 12170.587960902727 -2972.5206206838266 -999921.51737516152
 12268.726257767019 -2970.1933122455848 -999920.32497979549
 12388.10996628519 -2959.526010158655 -999918.8846787815
 12516.299980199479 -2940.6887035333357 -999917.34387635975
 12642.281085626495 -2913.700104742562 -999915.83799870464
 12755.511391142916 -2878.4525278416836 -999914.50206514925
 12844.90163459317 -2834.7132686950472 -999913.48270872026
 12897.536036126581 -2782.1028208548214 -999912.95294545067
 12896.952082684144 -2720.0437420174871 -999913.13122141699
 12820.697797119654 -2647.6742090201978 -999914.30609291594
 12636.829662184979 -2563.714042898619 -999916.86549752473
 12298.854078853983 -2466.270727585922 -999921.32475362532
 11738.522806358358 -2352.5763082335839 -999928.33366548747
 10855.79907530058 -2218.6753273407239 -999938.61266891228
 9505.604037809826 -2059.182828023087 -999952.70051035751
 7482.2040946062434 -1867.5089297942627 -999970.26407402917
 4506.5896350104686 -1637.6032575293157 -999988.50438664155
 236.72616952683617 -1369.4076895148489 -999999.03434118407
 -5630.3991476644287 -1080.638821258173 -999983.56527753768
 -12922.717717801255 -821.3889072655503 -999916.16082902136
 -19450.440310836595 -666.5618356129346 -999810.60009735555
 43148.306668119163 -2679.6523239546696 -999065.0845140653
 36520.950384341158 -2735.0044444664304 -999329.1449436032
 29518.961046261364 -2772.2534799428772 -999560.37614012696