# OOMMF OVF 2.0
#
# Segment count: 1
#
# Begin: Segment
# Begin: Header
#
# Title: Oxs_TimeDriver::Magnetization
# Desc: Oxs vector field output
# Desc:  MIF source file: /mnt/gpfs/work/plgrid/groups/plggspinsym/MF/switching-obrazki/p-ap/Anisotropy.mif
# Desc:  Iteration: 19300, State id: 135250
# Desc:  Stage: 0, Stage iteration: 19300
# Desc:  Stage simulation time: 2.84153e-09 s
# Desc:  Total simulation time: 2.84153e-09 s
# meshunit: m
# meshtype: rectangular
# xbase: 1.0000000000000001e-09
# ybase: 1.0000000000000001e-09
# zbase: 3.4999999999999998e-10
# xnodes: 35
# ynodes: 35
# znodes: 5
# xstepsize: 2.0000000000000001e-09
# ystepsize: 2.0000000000000001e-09
# zstepsize: 6.9999999999999996e-10
# xmin: 0
# ymin: 0
# zmin: 0
# xmax: 7.0000000000000005e-08
# ymax: 7.0000000000000005e-08
# zmax: 3.4999999999999999e-09
# valuedim: 3
# valuelabels: Magnetization_x Magnetization_y Magnetization_z
# valueunits: A/m A/m A/m
#
# End: Header
#
# Begin: Data Text
 -0 0 -0
 0 0 -0
 -0 -0 0
 -0 0 0
 0 0 0
 -0 0 -0
 0 0 0
 0 -0 0
 -0 0 0
 0 0 0
 0 0 0
 -0 -0 0
 0 0 0
 16391.5053298122 31414.800646234296 -999372.01724552026
 13894.700127010121 30569.181883452635 -999436.07220640033
 11667.130217948001 29605.649330118686 -999493.56356117642
 9952.6969178050495 28795.82810302878 -999535.76429656718
 8465.5305308850839 28212.335781069101 -999566.10531900614
 6884.4517799946661 27892.769540927355 -999587.21366923535
 4900.8227701761698 27873.307358642171 -999599.45011642831
 2316.7237999215768 28149.823104003019 -999601.03053670772
 -320.11925839115975 28526.928671007707 -999592.97309667978
 0 0 0
 -0 0 -0
 -0 0 -0
 -0 0 0
 0 -0 0
 -0 0 0
 -0 -0 0
 0 0 0
 0 -0 0
 0 -0 -0
 0 -0 0
 -0 -0 0
 0 0 -0
 -0 -0 -0
 -0 -0 -0
 -0 -0 -0
 -0 0 -0
 0 0 -0
 0 0 -0
 -0 -0 0
 0 0 0
 0 0 -0
 0 0 0
 22114.127204237153 30198.315356173556 -999299.26805119007
 19840.104669846154 28394.276043429101 -999399.88759988314
 17891.757618252159 26039.794669490846 -999500.78244236519
 15758.675659073799 25250.984195342218 -999556.92781283765
 13325.104535400595 23882.091631867064 -999625.97369636584
 11332.438610504874 22752.851541404529 -999676.88959076861
 9784.8027013422252 21908.019568084877 -999712.10671607847
 8438.6897957801648 21337.076711513051 -999736.72417888965
 7034.2665220206582 21067.491436204364 -999753.30952144531
 5337.7435063964076 21171.653821396674 -999761.60636860167
 3232.2346950456308 21745.519249373716 -999758.31331949972
 1069.2897811538394 22705.283807723874 -999741.62997575256
 -167.46354168422201 22759.20671505776 -999740.96168240684
 -2032.5509107079488 23896.500268253862 -999712.37164082599
 -4559.9523430305608 24795.105132809331 -999682.15428509191
 -0 0 -0
 0 -0 0
 -0 0 -0
 0 -0 -0
 -0 0 0
 -0 0 0
 -0 0 -0
 -0 0 0
 -0 0 -0
 -0 0 0
 0 -0 -0
 -0 0 -0
 -0 0 0
 -0 0 0
 -0 -0 0
 0 0 -0
 0 -0 -0
 -0 -0 0
 27316.324253092425 28210.040672048221 -999228.70857205731
 24436.779494994611 26095.363424292529 -999360.73357705353
 21326.651379518469 24571.202944069613 -999470.57481789729
 18478.942051328529 22160.758195625524 -999583.62806563533
 16226.130437845084 19749.030752180835 -999673.29086825356
 14185.601189171817 17901.650835198128 -999739.11577784945
 12265.612129891491 16363.602431973532 -999790.87176995538
 10681.341319929927 15200.868893011146 -999827.40637197206
 9412.0968522088006 14355.287110983936 -999852.658227604
 8305.9838962805661 13792.262330798663 -999870.38366545958
 7190.7354335552591 13530.716461828239 -999882.59962655336
 5920.4346051704233 13636.258565927799 -999889.4943474551
 4435.9074712722331 14190.361699881671 -999889.47207165486
 2858.391829287948 15170.025265488355 -999880.84286558593
 1330.0918529509627 16258.825480449137 -999866.93187126622
 -744.51531240725785 17742.928611133124 -999842.3046567142
 -3523.5296811848316 19376.067810723303 -999806.05756055494
 -6305.5459771473961 19972.485063658332 -999780.64590704697
 -9260.4163426914783 21004.170021665996 -999736.5000493183
 -0 0 -0
 -0 -0 -0
 0 0 -0
 -0 0 0
 -0 0 -0
 0 0 -0
 0 -0 -0
 -0 -0 -0
 -0 -0 0
 0 0 0
 0 0 0
 0 0 -0
 -0 0 0
 0 0 0
 -0 -0 -0
 29654.540080420371 24429.890071213475 -999261.62176065135
 26195.45934247303 23115.971755690123 -999389.53854822135
 22414.126106315154 20392.831019369758 -999540.76424821501
 19164.067674751877 17815.135283129646 -999657.62112085207
 16497.143066256856 15372.022904173482 -999745.74026723648
 14388.885989786582 13207.867232527302 -999809.23790648219
 12635.389295933717 11431.471230460866 -999854.82366333937
 11139.50885103395 9999.4025560677346 -999887.95536854002
 9917.225016727396 8889.5222052661411 -999911.30858838151
 8929.2821271550492 8056.069735256242 -999927.68121555413
 8080.9045713235955 7475.3521573005683 -999939.40720997355
 7262.8776488550584 7160.6996839658386 -999947.98614142614
 6380.5063570410848 7154.8382621794854 -999954.04765822622
 5377.5215130872784 7504.7031510033548 -999957.37993826088
 4238.7972447202501 8212.2373980082866 -999957.29496555857
 2894.3493649062257 9219.2974540076921 -999953.31255824573
 1071.534824462575 10605.965300711441 -999943.18104238296
 -1390.7917849014 12351.711725984174 -999922.74747384817
 -4457.4950362616419 14196.695679224316 -999889.28615611908
 -8135.2267919115111 16186.810807899456 -999835.8891542718
 -11173.479461341536 16863.417721656195 -999795.36831267213
 -0 -0 -0
 0 -0 0
 -0 0 -0
 -0 -0 -0
 0 -0 -0
 0 -0 -0
 0 0 -0
 0 -0 -0
 -0 0 -0
 0 0 -0
 -0 0 0
 -0 0 0
 -0 0 -0
 31102.371302908676 22077.570308788767 -999272.34695482103
 27720.078627273353 20144.676601942021 -999412.72217512876
 23539.154583415955 17283.782949051707 -999573.49857250019
 19846.214129206146 14419.31969694343 -999699.06021973176
 16884.112625211608 11908.588905309625 -999786.53334156459
 14550.151049726172 9725.2339861874407 -999846.84473590471
 12718.867842929743 7849.6439148710506 -999888.30050721334
 11253.260464596984 6273.8511253802662 -999916.99801582145
 10067.551667984921 4970.1271695133673 -999936.9691332205
 9123.4724787174328 3912.8710919913156 -999950.7246308428
 8375.4855741870524 3076.0186969300426 -999960.19388292276
 7758.1837081588719 2448.6327163956889 -999966.90684410697
 7197.6453509737321 2041.4481545103736 -999972.01280377526
 6623.4756058735466 1881.8643288846545 -999976.29379778111
 5974.4533867148484 2000.7494312552012 -999980.15125723556
 5188.0153491221781 2417.2503150189218 -999983.62056468287
 4161.9415787182252 3145.5983159879256 -999986.3916341709
 2725.9583668542127 4240.8900936696955 -999987.29192035028
 717.55262858196409 5747.2364622639625 -999983.22705497011
 -1988.41904849039 7669.393043993462 -999968.61280743417
 -5439.0012828931358 10023.814810672568 -999934.96808626829
 -9139.8707737684617 12333.400512171438 -999882.1680548389
 -11765.641027739277 13412.17066945925 -999840.82901686896
 0 -0 -0
 -0 0 -0
 0 0 0
 0 0 -0
 0 -0 0
 -0 0 0
 -0 0 0
 0 -0 0
 -0 -0 -0
 -0 -0 -0
 0 0 0
 32329.626014422123 20739.05133471439 -999262.07124632888
 28929.12960523551 18387.722209766547 -999412.32588567771
 24621.530851122363 15155.47402288697 -999581.95853351045
 20642.267163386328 12096.992363367071 -999713.73881832592
 17375.453767538558 9452.5703910953125 -999804.35212064045
 14803.953366780677 7214.4802759362747 -999864.38792421378
 12797.489266319668 5301.335619339191 -999904.05545188661
 11231.765378995857 3652.6554207738654 -999930.25034491706
 10004.604545801061 2232.0299875400451 -999947.4615848657
 9045.9723364198089 1013.0261403250394 -999958.57122309203
 8310.1866366732975 -23.215303177297674 -999965.46953338035
 7754.5479433680484 -889.32712565432553 -999969.53757774911
 7329.5760662764696 -1587.3111180932706 -999971.87848364166
 6980.0262993792994 -2106.4998395541461 -999973.42059241061
 6648.0230280446012 -2426.2179837890526 -999974.9583145139
 6272.7545445983096 -2521.2105136935993 -999977.14776287193
 5782.8451646203666 -2365.2265182185015 -999980.48201218387
 5081.7475867218373 -1925.4664957060706 -999985.23410110362
 4040.5147007504615 -1149.5919532732983 -999991.17630071822
 2516.2448156719861 26.040426122743888 -999996.83391194989
 369.586470903769 1670.4030845212346 -999998.53657861694
 -2490.9160049294128 3842.9786925951603 -999989.51337112754
 -5952.7712948875942 6431.1826030124639 -999961.60146489495
 -9501.8713360793154 8940.7075477736907 -999914.88547258731
 -11981.369416120033 10114.452843069925 -999877.06475876318
 0 -0 0
 0 0 0
 0 -0 -0
 0 -0 0
 0 -0 -0
 -0 -0 0
 0 -0 -0
 0 -0 0
 0 0 -0
 33808.239692251118 19841.125227053759 -999231.37094400486
 30209.105489854312 17329.606556758128 -999393.36333702505
 25709.94328661685 13886.435919468717 -999572.99168877769
 21514.715091990442 10625.860917394417 -999712.06260316505
 17995.389437053942 7843.4534440965826 -999807.3045327682
 15176.465977250722 5514.1183363141481 -999869.62619104201
 12960.25861720757 3543.2442235221656 -999909.73448454239
 11227.40069185209 1840.2104374268354 -999935.27745512128
 9877.1293459791723 342.41711069752432 -999951.16134059511
 8833.0903999576512 -987.80747398661504 -999960.4995950493
 8041.0478850454929 -2172.3682156699506 -999965.31058094511
 7461.058001646601 -3222.8850118392093 -999966.97226743272
 7056.6564653646692 -4143.2625889764604 -999966.5179267996
 6788.1737359986964 -4929.5070197695322 -999964.8097097578
 6610.8424025878467 -5569.7009668669252 -999962.63689893344
 6474.5513772763006 -6045.4023626699054 -999960.76587770984
 6322.355679197226 -6333.5636099725652 -999959.95609357464
 6086.2375910431019 -6406.8389849308332 -999960.9543008199
 5681.1262704889959 -6230.2451543430334 -999964.45379304118
 5001.9845962335994 -5755.891201648019 -999970.92451059504
 3928.4194378255315 -4922.4927416217361 -999980.16809631244
 2333.4370457273585 -3657.3672312721737 -999990.5893239642
 105.42637846791511 -1890.514261082119 -999998.20741894701
 -2797.7636936803628 386.12780211234633 -999996.01170386432
 -6262.6879205431578 3016.4622777734548 -999975.83955580473
 -9837.786908093678 5463.3756654774634 -999936.68273300619
 -12430.857282599021 6464.5698159570366 -999901.83674414479
 0 -0 0
 0 -0 0
 0 0 -0
 0 0 -0
 0 0 -0
 0 -0 0
 -0 0 -0
 36074.60318455864 18877.843704211668 -999170.78120917652
 31985.080551805157 16500.737265039814 -999352.130278314
 27085.04715266739 13066.480102899268 -999547.73138577957
 22568.34063819161 9732.3959909503337 -999697.92961129709
 18771.855027029404 6851.2218679262878 -999800.31917266396
 15697.638930336103 4435.7430000670029 -999866.9453062492
 13248.995209697359 2396.4486464380516 -999909.35647178453
 11312.386306171258 635.27856377176965 -999935.81110849639
 9787.8735790259016 -925.59399630128974 -999951.66923534579
 8598.5241956032078 -2338.0884393656811 -999960.29857395205
 7688.5388850997933 -3632.5618385249732 -999963.84477855067
 7017.7041496291822 -4824.3252761127405 -999963.73819959024
 6554.4341294192172 -5918.5272607623847 -999961.00445382704
 6268.8471917375873 -6913.022619734309 -999956.45488848456
 6128.0016016490008 -7799.6095007524636 -999950.80563396006
 6093.5964899182145 -8564.7982017402483 -999944.7546307653
 6120.8830806924861 -9190.6921854420088 -999939.0311251306
 6157.3979296113394 -9655.6560609639673 -999934.42522835918
 6140.7900383200704 -9933.9250658465608 -999931.80158973427
 5996.137238785429 -9993.6312573081486 -999932.08452999778
 5634.247878458681 -9794.0548941852539 -999936.16383225867
 4952.2457551241605 -9284.1930804319163 -999944.63797793631
 3836.3435327182901 -8403.6900808762875 -999957.32932026847
 2169.4698892359115 -7090.8506492996275 -999972.50624078105
 -151.06857873696765 -5307.241255751469 -999985.90508493572
 -3179.5776861232903 -3084.7653389296916 -999990.18720612559
 -6838.7001525816759 -624.66725873307178 -999976.42070752813
 -10713.317028863199 1501.4003075675996 -999941.48360559356
 -13723.947477739748 2040.7225828185578 -999903.73972546367
 0 0 0
 0 0 0
 -0 0 0
 0 -0 0
 -0 0 -0
 39587.591337510123 17059.332802676494 -999070.46887415403
 34753.730106918687 15428.56217050295 -999276.80735270074
 29118.645179931093 12346.471554387617 -999499.70942619175
 24040.018125534905 9128.6712700784155 -999669.3177693144
 19827.261815627749 6251.6849934628945 -999783.87470674759
 16428.711603499345 3795.7186142551996 -999857.83487216348
 13709.261228373132 1704.8697917948286 -999904.57023436239
 11536.333598533163 -108.59973319062304 -999933.44839204231
 9801.7662070713286 -1724.3744111926308 -999950.47472967976
 8424.5980510310401 -3201.9674791156194 -999959.38595121994
 7347.6070385129487 -4579.8770649095732 -999962.5179959886
 6531.2239544617523 -5879.285348199438 -999961.38781327498
 5946.9206795052096 -7108.6898344602605 -999957.04940925795
 5570.9985007249079 -8267.7284743737946 -999950.3030858977
 5379.3722811868593 -9349.7965381109279 -999941.82013682975
 5343.9687817273298 -10343.646161956331 -999932.22319402057
 5430.7311164045941 -11234.419261931509 -999922.14446095168
 5598.6197644398499 -12004.386630560632 -999912.27123100997
 5798.8561478747324 -12633.27877838729 -999903.38209983264
 5973.9304021581147 -13097.926083231881 -999896.37287464354
 6056.3290675408953 -13371.081274082269 -999892.26172812621
 5967.3024586439742 -13419.827559517633 -999892.14394835592
 5615.9216579864151 -13204.438366372326 -999897.04681600083
 4898.3952637308694 -12678.727140620571 -999907.62353426125
 3698.2659406609946 -11794.091230198945 -999923.60820268979
 1889.2483471663193 -10510.863959186448 -999942.97461380984
 -654.6845144647325 -8821.5052352847215 -999960.87545141997
 -4024.8860451008813 -6798.6701218124936 -999968.78870137688
 -8173.8097721179847 -4696.2443944961806 -999955.56607401127
 -12637.933817871068 -3146.7940325485406 -999915.18656140624
 -16032.328499983529 -3380.8977256397229 -999865.75797625806
 0 0 0
 -0 -0 -0
 0 -0 -0
 0 0 -0
 37492.668889224609 13873.7567081983 -999200.58979884768
 31981.296474481329 11524.538549185456 -999422.02381528472
 26198.339221380818 8621.2356616183679 -999619.58830232418
 21358.714434656726 5865.3332933272941 -999754.67149849189
 17490.364945557627 3438.5066945608719 -999841.11928134994
 14414.408081923 1334.7914417129264 -999895.21609589411
 11953.766842037576 -509.49071401305577 -999928.4213769997
 9971.9498984897418 -2165.3335930525018 -999947.9344174139
 8372.650165153309 -3692.1698230083443 -999958.13242915808
 7091.4073453252931 -5132.5410121211535 -999961.68374824326
 6086.6634552299674 -6512.6022068811781 -999960.268480942
 5331.6096848134021 -7844.9487906436852 -999955.01434646593
 4807.1850295105351 -9131.9487003976283 -999946.74782461568
 4496.3490703144071 -10368.670032379594 -999936.13472401211
 4379.7440204789955 -11545.12846024692 -999923.76101938472
 4432.8223497991485 -12647.881215023346 -999910.18656016595
 4624.2949866602394 -13661.14041779465 -999895.98916005343
 4915.4825586713168 -14567.499715895963 -999881.80600671133
 5260.0710382818734 -15348.247370857893 -999868.37281479954
 5603.8456482732954 -15983.161934837099 -999856.55743637285
 5884.1487971466304 -16449.789199815168 -999847.37896751775
 6028.9146038341778 -16722.397916481488 -999841.99431541318
 5955.1087545799646 -16771.048726054367 -999841.62176034134
 5566.3090325076537 -16561.385963776123 -999847.35669936787
 4749.3687722498989 -16056.191684145446 -999859.81127599452
 3370.8393886739641 -15220.247132814484 -999878.48337637121
 1276.3160350455032 -14030.842234731675 -999900.74831633305
 -1695.5535040322941 -12499.006444602088 -999920.44680375082
 -5646.475943754017 -10710.955474320946 -999926.69368421379
 -10371.197224899655 -8905.0350051754394 -999906.56494478474
 -14502.599686436994 -7593.5058644821138 -999865.9976571966
 -0 0 -0
 -0 -0 -0
 0 0 -0
 41499.604420947602 12142.601139923478 -999064.73267274396
 35974.436367151218 10770.888700487214 -999294.66519373935
 29361.158757622161 8204.9221904803926 -999535.19278125372
 23622.280875382396 5609.3987829402322 -999705.21779749589
 19060.524780417305 3258.9048576920081 -999813.02048644237
 15479.72008626722 1182.1187926186401 -999879.48316845205
 12640.80222579966 -663.47368850332214 -999919.8817514095
 10356.309302220203 -2337.1258465489063 -999943.64076202514
 8496.8246351330672 -3893.7180568636536 -999956.32051145798
 6979.0698415002707 -5375.9474349470202 -999961.19513375312
 5752.5437718591365 -6812.5948305932006 -999960.24760578701
 4788.1906564258325 -8219.5822249896501 -999954.75482557924
 4069.31674878576 -9602.1977478905847 -999945.61775108974
 3584.4513267331276 -10957.593196672275 -999933.53922149388
 3321.9248332483676 -12277.096146566577 -999919.11559166131
 3266.0257245510015 -13548.138410472484 -999902.8857952042
 3394.6237573200387 -14755.773413285307 -999885.3652697003
 3678.0334105960587 -15883.803792761328 -999867.07958973409
 4078.7699532115871 -16915.539425868985 -999848.60262021702
 4551.7672236486851 -17834.150614197919 -999830.5978949694
 5044.6452872306727 -18622.581555335601 -999813.85818068183
 5497.6591953219977 -19263.027157189052 -999799.33563096204
 5843.0039385605196 -19736.083543686342 -999788.15071560571
 6003.1259618150079 -20019.774452038491 -999781.56169714208
 5887.6669818284117 -20088.757939987783 -999780.86458080378
 5388.7877008889327 -19914.136518131232 -999787.17141892354
 4375.2384500730523 -19464.475451119884 -999800.97593666986
 2687.7176832106038 -18709.009625316554 -999821.35860987438
 145.06424372647797 -17625.42397669371 -999844.6496261342
 -3407.894609142113 -16219.428603718785 -999862.64876236976
 -7917.6905750358537 -14586.341720154693 -999862.26492011431
 -12589.399606269297 -13163.358672920309 -999834.10274205101
 -15330.668233168621 -13584.286917974134 -999790.19687155075
 -0 -0 0
 0 0 -0
 39575.78056128243 9545.6468435311162 -999170.97546881507
 33440.639333885418 7797.4920921246894 -999410.28749858995
 26826.280543262143 5457.4295479812581 -999625.21333494945
 21350.516645987387 3204.5468445106258 -999766.9159951586
 17063.041498769915 1176.753737131236 -999853.72323428071
 13705.621846469756 -645.15398506869894 -999905.86542240926
 11029.952706224371 -2312.5211266647598 -999936.49417817406
 8855.3938132275252 -3876.394565180738 -999953.27669126005
 7064.3162292962825 -5378.3316195092384 -999960.58371577994
 5586.1545356306706 -6848.0098462266242 -999960.94905683701
 4382.2730382375548 -8303.4188845258595 -999955.92348755372
 3433.7818702404907 -9752.2182647436584 -999946.55026205489
 2732.1056043506783 -11193.604489701163 -999933.61720540957
 2271.8255719963377 -12620.326208761164 -999917.7797073893
 2045.4419822623277 -14020.617889634839 -999899.61418188899
 2039.8436043058371 -15379.932005099876 -999879.64112166443
 2234.2893811788667 -16682.39459893612 -999858.34279732162
 2599.6556188886311 -17911.94610059258 -999836.18857168441
 3098.5973848620788 -19053.120104764024 -999813.67129506695
 3686.2148816535587 -20091.418736719632 -999791.35158941627
 4310.7872060151549 -21013.24672276714 -999769.90381578926
 4914.1594638751894 -21805.409720261225 -999750.15636092552
 5431.3819571788226 -22454.223379908632 -999733.11835831485
 5789.2099924901095 -22944.327801911164 -999719.98222971486
 5903.0836613837728 -23257.31576653877 -999712.08398549561
 5672.3517359732532 -23370.299769069745 -999710.78493456659
 4974.071858717838 -23254.569872290653 -999717.20180719066
 3657.5471341791294 -22874.767462608812 -999731.64767476125
 1547.0515263811101 -22190.318647040534 -999752.5675835585
 -1525.4671215280569 -21166.154055062878 -999774.80808058893
 -5599.5945866321254 -19817.692403414363 -999787.92931714735
 -10239.538334604997 -18351.202244871056 -999779.16823209624
 -13725.034203181278 -17359.48999250491 -999755.10578507243
 0 0 0
 -0 -0 0
 37187.473139371832 7337.9979512618429 -999281.36459536548
 30948.449144125996 5393.8948347840224 -999506.42789032869
 24558.197459483246 3249.3428949884346 -999693.12126686738
 19359.12432301107 1273.2605976841342 -999811.78384378774
 15295.884146827721 -511.65740801636798 -999882.88020890928
 12096.57347044004 -2152.4982607404754 -999924.51698191278
 9522.0031937260519 -3700.9563687481736 -999947.81582697341
 7404.7220914501004 -5199.2596757972751 -999959.06805707398
 5640.0726136171043 -6677.9640412530098 -999961.79645883315
 4169.2145931916511 -8156.423301291783 -999958.04432416358
 2963.6633909484435 -9643.9820016062022 -999949.1038600204
 2012.9316327962879 -11141.470263822719 -999935.9058192689
 1315.0153738127349 -12642.88046092398 -999919.21089066856
 869.24243326700889 -14137.127123529715 -999899.68799589353
 671.15056448230087 -15609.801468988033 -999877.93437750114
 709.16931969630957 -17044.81857620797 -999854.47503053176
 962.90693110390953 -18425.866350863369 -999829.76563986251
 1402.7687860792435 -19737.560352260116 -999804.211308931
 1990.5506030635242 -20966.224873494448 -999778.20296446269
 2680.5683819274682 -22100.231349816331 -999752.16645298374
 3420.8672376313893 -23129.858749823528 -999726.61628144921
 4154.0566802282301 -24046.670132264484 -999702.20639380766
 4817.3573902043636 -24842.433878655054 -999679.77200039395
 5341.4775160378349 -25507.626020022635 -999660.35713774723
 5648.0016738035956 -26029.539371427149 -999645.2186436964
 5645.1526577929944 -26389.98312503285 -999635.78419448901
 5222.3317139433984 -26562.534958786513 -999633.51233741292
 4245.3736968831636 -26509.431640036655 -999639.5484554898
 2558.4602524348188 -26178.930474488963 -999653.9990818568
 8.7776141747090222 -25506.555723304278 -999674.65484430874
 -3463.5008944950509 -24431.076938487116 -999695.5169656307
 -7550.2916625730413 -22958.325607487503 -999707.91153271892
 -10820.153684054081 -21414.282175852702 -999712.13496343349
 -0 0 -0
 42612.404126585832 6865.1600863820704 -999068.09206957486
 36359.300601583964 5446.8328853253797 -999323.93810579902
 29000.485658912461 3366.0825151456047 -999573.72980688559
 22638.78215762187 1423.4721650673507 -999742.69653217029
 17619.256577901928 -318.20770472884647 -999844.71821453283
 13704.6584858804 -1914.8087817433327 -999904.25333784579
 10599.712185260249 -3425.1240429060513 -999937.95538867335
 8073.3996535331689 -4895.2732684096754 -999955.42726546666
 5971.0875855125105 -6357.9288129236702 -999961.96070363396
 4200.1456716714474 -7833.9009900408182 -999960.49360543001
 2712.1179200942684 -9333.8272018966181 -999952.76092731138
 1487.2144963970236 -10859.703911720013 -999939.92570753535
 521.9591591036899 -12406.387608183455 -999922.90158049262
 -180.35890635461411 -13963.165542793649 -999902.49398563337
 -616.84759006306172 -15515.426622525491 -999879.43825031805
 -790.07220204464829 -17046.378583807964 -999854.3877800873
 -711.19285087455239 -18538.714919663438 -999827.89031605632
 -401.37878196351949 -19976.099176003157 -999800.37725377141
 108.22039518011141 -21344.336584413271 -999772.17784059059
 777.5487806137935 -22632.116009339112 -999743.55849029275
 1559.2922185220029 -23831.244193252664 -999714.7795286309
 2400.5969315122188 -24936.334435895929 -999686.15893152857
 3244.3867066347593 -25943.953612095385 -999658.13417681516
 4029.8616123039837 -26851.253993507216 -999631.31722368638
 4691.8400353131392 -27654.11778599822 -999606.54079820903
 5158.7097282914046 -28344.81397643972 -999584.8934605706
 5348.9661593814262 -28909.124806610886 -999567.73210420401
 5166.8448654761223 -29322.875792993229 -999556.63804977294
 4498.9042928524113 -29547.929576937506 -999553.24006171874
 3216.7925251863376 -29528.323596943708 -999558.76783278945
 1199.7537687263623 -29189.433377408506 -999573.17769636062
 -1589.0770369274596 -28450.836577393249 -999593.92991965357
 -4892.581097795889 -27295.030031871062 -999615.44805278024
 -7704.3283752507268 -26056.859241204667 -999630.77354129625
 -8072.2367137096189 -26224.624923007497 -999623.48313856917
 41419.54739646252 4191.3322189821656 -999133.05111366534
 34642.17236617858 3046.7512449087158 -999395.13566987275
 27186.541474186764 1429.3806336194134 -999629.35572825023
 20956.186174769664 -172.66260003158919 -999780.38010786893
 16069.058773996105 -1677.9755536895677 -999869.47635586886
 12240.393758940641 -3115.8066846151241 -999920.22907296463
 9174.9974666257804 -4527.3445092975053 -999947.65991684864
 6652.8758130630395 -5945.2732423095295 -999960.19569255388
 4531.4544601346115 -7391.1884804701904 -999962.41742043605
 2728.8430876425527 -8876.5305963884566 -999956.87938029331
 1205.6756521077921 -10403.96948574033 -999945.15037834039
 -50.360928646611811 -11968.761826151922 -999928.37053667288
 -1036.892251683515 -13560.140457830306 -999907.51944628498
 -1746.4764385115132 -15162.846233860682 -999883.51217236207
 -2173.8274884963917 -16758.823393073679 -999857.1979600538
 -2320.8340642770722 -18329.016168465128 -999829.31588123692
 -2199.5095036121324 -19855.126663939373 -999800.44814107905
 -1833.0533551783528 -21321.162997278469 -999770.99774090282
 -1255.3388020048289 -22714.604130752501 -999741.20195362321
 -509.27018509643648 -24027.04586511237 -999711.1791466946
 355.45127237175461 -25254.246770332818 -999680.9974559166
 1284.6047549748616 -26395.552825429262 -999650.7513035055
 2221.2708445964872 -27452.725598062469 -999620.63494761463
 3106.7942978954643 -28428.219634671528 -999591.00844174938
 3880.6009576924316 -29322.94835303288 -999562.4570961498
 4478.7205791006691 -30133.546719191974 -999535.84749327367
 4831.0904509395941 -30849.105615287892 -999512.37773615972
 4858.1819620581409 -31447.368044185754 -999493.60233626154
 4468.5900179554919 -31890.58171028427 -999481.3767656862
 3561.7753928033408 -32121.977032579776 -999477.60972798662
 2045.8822051434406 -32066.214024641507 -999483.65283486701
 -107.64772015447859 -31643.824690423608 -999499.20298664062
 -2732.1046769791219 -30825.298130718966 -999521.05360476824
 -5212.4104469696313 -29761.273295505845 -999543.44447310665
 -6243.7027281924384 -28891.381500148858 -999563.05666588899
 40048.807085664106 1665.6003897006906 -999196.33647564857
 33075.18091962194 876.50776644009318 -999452.48218275455
 25630.736321429977 -302.1018347779904 -999671.43306693656
 19489.122757403173 -1580.3836487633916 -999808.81996593205
 14669.745038179268 -2871.3359882564187 -999888.2707633673
 10867.933437933434 -4174.0490704107324 -999932.23037221213
 7794.0098466258614 -5507.6660239998255 -999954.45847572444
 5238.8632236250478 -6889.5057205975691 -999962.54381004185
 3070.6761856365692 -8329.6427340935479 -999960.59322339576
 1216.9801691991775 -9830.271152610525 -999950.94116078236
 -353.64809662521952 -11386.303338011145 -999935.11140939477
 -1647.0887034173863 -12986.350330788569 -999914.31723117619
 -2656.155745379514 -14613.983768411917 -999889.68207251374
 -3370.3790762076414 -16249.294331232473 -999862.29100742633
 -3783.3293955164245 -17870.714200057391 -999833.1480765501
 -3897.5925804418466 -19456.973796908831 -999803.09808618971
 -3727.4691091187447 -20988.996121568951 -999772.75818850414
 -3299.5863242989481 -22451.499564027439 -999742.48829256766
 -2651.7825426460463 -23834.103808292577 -999712.41041861731
 -1830.791733102481 -25131.794809064391 -999682.47013304441
 -889.34521940953812 -26344.685978493173 -999652.52292272809
 116.69884282749886 -27477.088919830487 -999622.42670213839
 1130.6802535084496 -28535.954219842122 -999592.12725937739
 2096.5366169659733 -29528.759293553529 -999561.73241516051
 2959.0520323597148 -30460.899736735639 -999531.57909007464
 3662.8931396064281 -31332.605389057535 -999502.30167487927
 4150.5807676483919 -32135.367883176594 -999474.90754410834
 4359.9275095460061 -32847.893907011196 -999450.85266759619
 4222.2701519755019 -33431.801256925799 -999432.08228447475
 3664.5923514264246 -33827.927668988494 -999420.95338877081
 2622.4290794216172 -33955.761672122338 -999419.89629734168
 1078.4382117467828 -33721.862346114576 -999430.67441965849
 -841.77199667237301 -33047.979994140253 -999453.41183979763
 -2654.4395133813637 -31934.593684055711 -999486.43596454279
 -3236.3788106493848 -30630.12286058507 -999525.54816059594
 38846.281179893253 -385.46312303336953 -999245.12400945637
 31789.492270058632 -951.47995013099444 -999494.13348309183
 24339.106112060203 -1823.1712163799132 -999702.09760727291
 18215.802766537367 -2842.0237567962304 -999830.03927194374
 13395.294699054324 -3949.8603461531957 -999902.47758627508
 9563.9648213807832 -5136.3914702796901 -999941.07229354244
 6437.976111788249 -6405.269812169171 -999958.7616408075
 3817.4986243949029 -7760.0718212686379 -999962.60329553403
 1579.8339006456144 -9199.6613443682563 -999956.43422900955
 -339.37033883143431 -10716.952635103973 -999942.51422468782
 -1964.6414312345282 -12298.912469690653 -999922.43545992568
 -3296.3870047944783 -13927.220913533371 -999897.57793002983
 -4323.6493112852813 -15579.467944055812 -999869.28457434522
 -5034.1476988891691 -17230.832087744238 -999838.86490899615
 -5421.7360452508456 -18856.113300423131 -999807.50735801994
 -5491.279759861538 -20431.905513004865 -999776.16649113328
 -5260.9942355062085 -21938.628190306164 -999745.47687538015
 -4762.4570226015958 -23362.132868572327 -999715.72446918068
 -4038.7423388756365 -24694.656462717659 -999686.88222988509
 -3141.3164312500016 -25934.991984323056 -999658.69591668725
 -2126.4139121507997 -27087.858369250313 -999630.79499025142
 -1051.5674559488264 -28162.535074900672 -999602.80402970104
 27.182254432820681 -29170.874287526443 -999574.43912618433
 1057.0567316417562 -30124.798227824616 -999545.58633551013
 1989.1446565031786 -31033.356312886455 -999516.3701008067
 2777.8732689639055 -31899.359760576568 -999487.2256647239
 3379.5825510155023 -32715.568836059578 -999458.98864211212
 3750.7393728002903 -33460.405501344372 -999433.00586774875
 3846.9352698265825 -34093.292893476078 -999411.25092161598
 3625.1173030598188 -34550.138789311837 -999396.3910452039
 3054.5122062431328 -34740.512955354447 -999391.69834193669
 2148.8282948035758 -34550.381228877966 -999400.64723508107
 1048.7925015813089 -33860.231329750706 -999426.02766216965
 205.61203019683884 -32612.03292594607 -999468.06503866368
 506.36780075989844 -31074.73396572168 -999516.93557468569