# OOMMF OVF 2.0
#
# Segment count: 1
#
# Begin: Segment
# Begin: Header
#
# Title: Oxs_TimeDriver::Magnetization
# Desc: Oxs vector field output
# Desc:  MIF source file: /mnt/gpfs/work/plgrid/groups/plggspinsym/MF/switching-obrazki/p-ap/Anisotropy.mif
# Desc:  Iteration: 23100, State id: 161850
# Desc:  Stage: 0, Stage iteration: 23100
# Desc:  Stage simulation time: 3.40107e-09 s
# Desc:  Total simulation time: 3.40107e-09 s
# meshunit: m
# meshtype: rectangular
# xbase: 1.0000000000000001e-09
# ybase: 1.0000000000000001e-09
# zbase: 3.4999999999999998e-10
# xnodes: 35
# ynodes: 35
# znodes: 5
# xstepsize: 2.0000000000000001e-09
# ystepsize: 2.0000000000000001e-09
# zstepsize: 6.9999999999999996e-10
# xmin: 0
# ymin: 0
# zmin: 0
# xmax: 7.0000000000000005e-08
# ymax: 7.0000000000000005e-08
# zmax: 3.4999999999999999e-09
# valuedim: 3
# valuelabels: Magnetization_x Magnetization_y Magnetization_z
# valueunits: A/m A/m A/m
#
# End: Header
#
# Begin: Data Text
 -0 0 -0
 0 0 -0
 -0 -0 0
 -0 0 0
 0 0 0
 -0 0 -0
 0 0 0
 0 -0 0
 -0 0 0
 0 0 0
 0 0 0
 -0 -0 0
 0 0 0
 8892.8946714997928 -14690.402326569973 -999852.54338019527
 11797.039287083409 -13023.400673070977 -999845.59852957667
 14948.483973371172 -10742.190899805448 -999830.55972578155
 17233.949825609583 -8232.0882011929643 -999817.5952128747
 18425.133819268849 -5591.7508722329803 -999814.60619753122
 18502.341427130636 -2838.7134274282171 -999824.78718412993
 17517.995952144214 1.4507999465986399 -999846.5481341203
 15732.783350868151 2791.1827610214277 -999872.33626439993
 14115.144193560607 5002.7727966998518 -999887.86119681434
 0 0 0
 -0 0 -0
 -0 0 -0
 -0 0 0
 0 -0 0
 -0 0 0
 -0 -0 0
 0 0 0
 0 -0 0
 0 -0 -0
 0 -0 0
 -0 -0 0
 0 0 -0
 -0 -0 -0
 -0 -0 -0
 -0 -0 -0
 -0 0 -0
 0 0 -0
 0 0 -0
 -0 -0 0
 0 0 0
 0 0 -0
 0 0 0
 855.32708391208791 -16650.491705913821 -999861.0051109757
 4509.1137804899799 -16042.650026648193 -999861.1409956069
 7860.4985396994161 -14779.903729871363 -999859.8736865297
 10150.086229257275 -12922.941435694687 -999864.97755156341
 13152.005785190095 -10483.358151596722 -999858.55196907301
 16099.635242866727 -8196.8119918916 -999836.79369095841
 18274.40935367643 -6081.243329775968 -999814.51501882996
 19463.749589877225 -4012.8756820182389 -999802.51013920922
 19644.272529739457 -1867.9447341229375 -999805.28771318635
 18895.411398931152 477.98944062854412 -999821.35151944007
 17505.845652181451 3145.8768290771354 -999841.81190175191
 16231.361361083444 6140.3497985050317 -999849.4081674089
 15699.765804445084 9236.0509752699672 -999834.09259540041
 13277.357802936966 11256.201060305313 -999848.49337660277
 10180.975819617368 12632.028046469368 -999868.38113763439
 -0 0 -0
 0 -0 0
 -0 0 -0
 0 -0 -0
 -0 0 0
 -0 0 0
 -0 0 -0
 -0 0 0
 -0 0 -0
 -0 0 0
 0 -0 -0
 -0 0 -0
 -0 0 0
 -0 0 0
 -0 -0 0
 0 0 -0
 0 -0 -0
 -0 -0 0
 -8020.3453409275671 -13205.955689081689 -999880.63127302856
 -4167.4857211051694 -13361.581611137637 -999902.04530224518
 479.99583558984369 -13245.586989589316 -999912.15815655491
 5068.3574930953137 -12017.864812223261 -999914.93772104301
 8934.8152759853638 -10574.948452447517 -999904.16517844959
 11942.8782375685 -8800.0725295862703 -999889.95713672263
 14798.025678161834 -6822.0753563608587 -999867.23004800011
 17370.573874878071 -5040.6410341936726 -999836.41417044913
 19311.702168656713 -3499.9404267477034 -999807.38573805219
 20451.452627400457 -2076.3529625402375 -999788.69109617569
 20764.654690193325 -614.39653411662846 -999784.2025319743
 20337.193022810807 1041.4889711055596 -999792.63544030767
 19395.713540238456 3010.1908520519964 -999807.3539674026
 18279.855318857954 5248.0288727175966 -999819.13618537667
 16931.982372578132 7465.2155690426735 -999828.77460565337
 14394.716873586805 9488.7476469747144 -999851.36685120431
 11041.197818107814 11731.54847189983 -999870.22293955367
 7792.7830327321171 13807.572385790043 -999874.30383894546
 4383.6483484167147 14994.128071723946 -999877.97242989903
 -0 0 -0
 -0 -0 -0
 0 0 -0
 -0 0 0
 -0 0 -0
 0 0 -0
 0 -0 -0
 -0 -0 -0
 -0 -0 0
 0 0 0
 0 0 0
 0 0 -0
 -0 0 0
 0 0 0
 -0 -0 -0
 -12951.485903001674 -8710.3814529357405 -999878.1867146861
 -8933.3845100613125 -9432.4797572554726 -999915.60792240081
 -3740.7739490554081 -8881.2640142392465 -999953.56380172551
 1396.0097977944522 -7987.1052026220696 -999967.12811328296
 6071.9019564764812 -6815.1157461413222 -999958.34223431407
 10028.626791202865 -5638.5677127177396 -999933.81440914969
 13249.033686604349 -4408.0442056058382 -999902.51137431024
 15996.734092794853 -3158.3626436200761 -999867.05578480579
 18301.605962580987 -2045.1291245766915 -999830.41995433124
 20042.524716768603 -1107.3291775385733 -999798.51521447569
 21130.496987960531 -272.8900458625908 -999776.68888010399
 21554.968567036234 575.08306723621274 -999767.49927647691
 21382.50250218474 1555.0308229477537 -999770.15881945787
 20742.852826920567 2743.2197866138122 -999781.08043801412
 19746.131244728993 4118.8577888559776 -999796.54195810331
 18270.529760199162 5599.3000152785153 -999817.40111963474
 15966.794377552127 7248.7458882516621 -999846.24676014693
 12892.534337762823 9277.4579818786642 -999873.84770867182
 9240.5866650713087 11546.347384118937 -999890.64073036041
 5070.5565148305323 13808.166874311633 -999891.80613914481
 1803.0800763797397 15414.763224673286 -999879.55973555404
 -0 -0 -0
 0 -0 0
 -0 0 -0
 -0 -0 -0
 0 -0 -0
 0 -0 -0
 0 0 -0
 0 -0 -0
 -0 0 -0
 0 0 -0
 -0 0 0
 -0 0 0
 -0 0 -0
 -16423.492744506595 -3512.050191730109 -999858.95724823198
 -13353.953840280195 -4584.8133968154089 -999900.32073349587
 -8396.8313227847375 -4229.6878990193636 -999955.80050520913
 -2897.4868076399598 -3420.115181275557 -999989.95364070835
 2283.3281660855619 -2604.2677808109993 -999994.0020829183
 6859.7986097551793 -1830.7945931346248 -999974.79535945854
 10741.290604920217 -1136.8837474997656 -999941.66438422084
 13953.228382135259 -489.69590183789563 -999902.52905752754
 16609.477497650532 110.76199789037315 -999862.04697899939
 18757.969852524482 615.77497241192509 -999823.86418218445
 20375.734696604552 1010.4379565043582 -999791.88256892224
 21436.029245637696 1335.6900336585745 -999769.32968676032
 21946.254610491342 1666.1088600370304 -999757.76365569571
 21953.381949676746 2080.8424425521462 -999756.82999202411
 21523.857211265837 2635.7880528422979 -999764.86045074102
 20687.24824049302 3349.3472527497606 -999780.38570138824
 19363.145970923284 4240.2661140122291 -999803.52505949442
 17398.527688739181 5404.8491510880267 -999834.02564621624
 14738.152505839122 6987.9460927238924 -999866.96888642129
 11364.441805777456 9051.1790806589634 -999894.45724020968
 7335.1401532035916 11605.817624453372 -999905.74591618427
 3295.6764698627039 14357.491186687523 -999891.49459500366
 497.11702369937194 16300.738694558628 -999867.01055324171
 0 -0 -0
 -0 0 -0
 0 0 0
 0 0 -0
 0 -0 0
 -0 0 0
 -0 0 0
 0 -0 0
 -0 -0 -0
 -0 -0 -0
 0 0 0
 -18191.914648326445 2295.3094930437874 -999831.87876550469
 -16526.978474734617 725.02277312848526 -999863.1572992747
 -12599.793813306649 667.71460783884186 -999920.39650817437
 -7476.9714076351802 1223.2425796390755 -999971.29887620301
 -2153.0286756297633 1818.0805153725603 -999996.02951749857
 2815.7817777664854 2264.3410173358652 -999993.47204506141
 7209.369588859242 2567.4309022713219 -999970.71621557674
 10967.406100723265 2760.8446445587097 -999936.0448250029
 14108.830266844125 2882.8852010212222 -999896.30956485646
 16691.274058605261 2948.7665132560137 -999856.34275447356
 18755.796276001525 2950.5365516374463 -999819.74097339693
 20315.716014014772 2888.9258622800594 -999789.44072749652
 21378.616889019286 2790.2653358662437 -999767.55756489094
 21965.29399716586 2701.6561408507514 -999755.08346480271
 22112.589893270979 2676.8575367538183 -999751.90312494012
 21858.722686012923 2763.0060919838602 -999757.25155653222
 21213.363167661857 2999.149318530137 -999770.47282187815
 20131.70705248079 3437.4741328199884 -999791.42732008826
 18531.833111923923 4171.0959990194115 -999819.57028239802
 16342.985896235701 5323.3403284864917 -999852.2735183147
 13504.644828432012 7011.073947084541 -999884.22800350573
 10010.262516176874 9326.3962790324076 -999906.40210811934
 6068.4704473753009 12205.575137177975 -999907.09448528255
 2228.7886704686366 15182.960436813377 -999882.24817397189
 -444.26463204063299 17193.222725659136 -999852.08692148188
 0 -0 0
 0 0 0
 0 -0 -0
 0 -0 0
 0 -0 -0
 -0 -0 0
 0 -0 -0
 0 -0 0
 0 0 -0
 -17461.232138150146 8155.5921971845009 -999814.27859784581
 -17840.820212736344 6217.9118384948561 -999821.50542309566
 -15641.575028359066 5704.9943766972938 -999861.38747818151
 -11603.757274488118 5921.4645557498607 -999915.14093678445
 -6739.7089274322943 6274.1188287674759 -999957.6049795791
 -1764.9038532128991 6488.9533644588582 -999977.38904368388
 2911.8212933175046 6506.5546345886341 -999974.59269900585
 7098.7508462220949 6362.5206617940521 -999954.56200131972
 10727.352797371284 6108.3284632692612 -999923.80320969736
 13794.327154196013 5785.9608617034519 -999888.11333832215
 16327.049968873402 5418.3172731703953 -999852.02369012637
 18356.284185809072 5013.4662839348721 -999818.93960192089
 19906.627190362302 4579.9074822967614 -999791.35355400911
 21001.647652989712 4137.4824206296316 -999770.87976949941
 21670.377861990186 3718.3353947353021 -999758.25513231487
 21946.739269605339 3361.7085338443394 -999753.48939184274
 21859.895597127299 3108.773863724507 -999756.21052812017
 21418.780317094981 3003.7422070803877 -999766.07933180104
 20601.037366407316 3103.9758123004267 -999782.95774312166
 19358.258192545192 3490.7853333355856 -999806.5174109973
 17630.692738657443 4266.8561126812274 -999835.46276998427
 15353.20535898161 5543.4013465820917 -999866.76601771091
 12475.43011599425 7421.5186126985664 -999894.63680174935
 9011.235795627872 9932.9940902809503 -999910.06258454977
 5105.0779215379607 12929.192112156681 -999903.38241789234
 1211.1621699381958 15904.35262129548 -999872.78423502226
 -1628.9560539508489 17789.055498794565 -999840.43527286674
 0 -0 0
 0 -0 0
 0 0 -0
 0 0 -0
 0 0 -0
 0 -0 0
 -0 0 -0
 -13504.356873909637 13186.573510804843 -999821.85744484805
 -16437.850014174579 11179.466866896999 -999802.38877864426
 -16705.030891448223 10365.962183205824 -999806.72570798988
 -14507.775331712917 10337.543633977184 -999841.31723315991
 -10782.189546209738 10526.735596200235 -999886.45966743492
 -6349.5806933581016 10608.611372534764 -999923.56717389426
 -1775.3406377011761 10469.365293441462 -999943.61868856009
 2596.4869352771516 10114.544915932958 -999945.47563191585
 6579.5479286907921 9597.3813255748373 -999932.29761856655
 10087.218441110013 8975.5345355832851 -999908.83974686498
 13092.053547335832 8293.8892681136495 -999879.8975550622
 15599.220398840231 7580.7234855469715 -999849.58716518153
 17628.485505270386 6852.2449889795653 -999821.12562067911
 19205.379335453756 6121.6703949210996 -999796.81863674568
 20359.407622104973 5406.6526628473375 -999778.1066958108
 21123.810971725572 4731.9612515734771 -999765.6691208916
 21532.551925107677 4128.5173631069674 -999759.62338552927
 21613.347935675098 3631.9153771589681 -999759.80734459625
 21378.782115321555 3283.5367247664531 -999766.0556659454
 20820.120523678401 3135.0271737690296 -999778.32252254756
 19907.516098553733 3252.6287171993745 -999796.53490558453
 18593.804912889875 3716.5461388633489 -999820.21269009123
 16816.763160826606 4615.1963830678933 -999847.93665793922
 14504.398730258852 6033.6666139431236 -999876.60102867987
 11587.512840804451 8027.0419974706865 -999900.6431355743
 8026.3402974877617 10571.965731997341 -999911.90182035055
 3899.0448163820424 13475.870055069499 -999901.59434605297
 -372.50584147697077 16195.856256417281 -999868.76912898896
 -3715.3613884070633 17640.496130029478 -999837.4912884793
 0 0 0
 0 0 0
 -0 0 0
 0 -0 0
 -0 0 -0
 -6391.0153714269718 16392.426259366395 -999845.20966190228
 -11865.552999648637 14796.035751142887 -999820.12681184977
 -15001.891758944847 13924.132072071407 -999790.50895159657
 -15306.516322905645 13833.552925448141 -999787.14903299068
 -13436.988771459646 14044.77146631747 -999811.07801784971
 -10201.676875077568 14185.510552061651 -999847.33688664378
 -6266.9552828487476 14082.379800609657 -999881.19886846258
 -2109.8864563421903 13702.350555071704 -999903.89236586483
 1955.7838995869531 13085.617209689794 -999912.46693477093
 5738.644843116188 12297.746216744543 -999907.91245661874
 9132.1226217997209 11402.137530815005 -999893.29210478696
 12086.008929293666 10448.556877228893 -999872.36987894808
 14586.25643382964 9471.4450694665338 -999848.75498824439
 16640.938306036111 8493.825697353861 -999825.45181512425
 18271.467852435024 7533.6069361288683 -999804.68003958114
 19507.549733668613 6609.1132544320144 -999787.86506207334
 20383.357376884451 5742.1269684732351 -999775.74821553088
 20932.924887435889 4958.6929999299282 -999768.58523329743
 21184.230796445518 4289.155629037512 -999766.38846760232
 21153.042239038241 3768.9312872088144 -999769.14533355448
 20838.424760559807 3440.3748237129739 -999776.93705874763
 20220.958696992497 3354.4106059992673 -999789.9083101711
 19262.248166865669 3570.1458409094203 -999808.09151268273
 17903.514562053224 4151.9108092199849 -999831.09863764432
 16063.490921074796 5162.9623439347779 -999857.64390700299
 13637.181715382976 6652.850735091095 -999884.87679930334
 10501.811376905027 8634.0221460053981 -999907.57853882981
 6553.7368165409807 11034.290128506234 -999917.64309621975
 1828.2621321586314 13591.105765361557 -999905.9652295562
 -3199.2213318015079 15649.637594838003 -999872.41877452575
 -7142.5866166757942 16047.405359323224 -999845.72021770291
 0 0 0
 -0 -0 -0
 0 -0 -0
 0 0 -0
 -5704.2463483296578 16243.609156812527 -999851.79238483065
 -10468.830464775468 15773.067480579703 -999820.79090752685
 -13360.218090198743 15816.809288979925 -999785.64358391252
 -13853.044949572886 16221.157294654471 -999772.45771307754
 -12450.308415780264 16630.669965839657 -999784.18202972156
 -9776.0047788939846 16804.616359977714 -999810.99943917245
 -6369.6206392666254 16647.534287016202 -999841.13114788127
 -2644.1692482724857 16164.930666928951 -999865.84269366856
 1105.5751313417695 15414.309782498849 -999880.5812483601
 4681.0324940268101 14469.675120189615 -999884.35153106879
 7957.0154367973719 13400.870935647919 -999878.54390596075
 10862.493948571075 12264.61581378054 -999865.78370507178
 13365.476799341774 11103.139578692879 -999849.03076485626
 15461.381993803981 9947.1106173746939 -999830.98604574555
 17164.282590407915 8820.2811729854329 -999813.77768221719
 18500.176127749106 7743.8314157725245 -999798.86805209285
 19501.191759349851 6739.2982970360727 -999787.12003027357
 20199.917064978894 5830.0392516897091 -999778.96256767248
 20623.731928581197 5041.8845131041298 -999774.59513727122
 20789.679190080482 4403.7281423133009 -999774.17270982859
 20700.567320321665 3948.3159212542855 -999777.92399812618
 20342.355931398997 3712.8151910137826 -999786.17891953164
 19681.793006457829 3738.53427141679 -999799.30505354516
 18662.817311065839 4069.4702461050351 -999817.55268745404
 17200.96562979597 4749.290136396311 -999840.7728356563
 15176.234250469932 5815.5511166598017 -999867.92191728216
 12428.457660574681 7288.5179307093704 -999896.20008606545
 8769.7067256981027 9147.4322120509951 -999919.70514030347
 4056.3414757682995 11278.466503721154 -999928.16856370086
 -1536.4344125262949 13370.636764427467 -999909.42861931724
 -6536.0661303175284 14773.039645373612 -999869.5100557754
 -0 0 -0
 -0 -0 -0
 0 0 -0
 6195.1877271834855 16197.113744132997 -999849.62527141289
 -2098.2020164707869 15885.427308137034 -999871.61713268771
 -8162.1134760484392 16057.471759127789 -999837.75559053023
 -11407.167362338114 16707.028063211033 -999795.35493322962
 -12313.2781778183 17488.74820639109 -999771.23726715043
 -11460.664490963791 18114.653988253682 -999770.22984299308
 -9379.419151904056 18412.941731584564 -999786.47223952867
 -6520.0479406707982 18323.874530687986 -999810.84440859861
 -3244.8022795070506 17867.006109294896 -999835.10708059114
 168.65106846852149 17104.998799517041 -999853.68458234216
 3517.2457353439022 16115.543327393796 -999863.94986803073
 6660.5788979960116 14973.801275231011 -999865.70196407533
 9509.2439335381951 13743.875156357177 -999860.33033394185
 12014.18251884504 12476.619513334914 -999849.98543977761
 14157.184628642888 11211.2122614732 -999836.92812529113
 15942.479207407454 9978.3887344984432 -999823.11891403294
 17389.233674893192 8803.7937121095038 -999810.0358410466
 18524.691728312624 7710.5804751885626 -999798.67110589158
 19377.819272527551 6721.0496982996656 -999789.6416802858
 19973.579844467669 5857.5841479672299 -999783.34893923183
 20328.140596830079 5143.2561604488801 -999780.13263714325
 20445.155883775271 4602.3193623047191 -999780.38301287708
 20312.795516898132 4260.5325228526253 -999784.59590099216
 19900.557496631878 4145.1672418338776 -999793.37135223113
 19154.628966113902 4284.6340171121456 -999807.35249372397
 17990.808824016429 4707.6440078075711 -999827.0694903963
 16284.928968445567 5441.5249294832383 -999852.58458181471
 13863.352058600112 6508.5957605911553 -999882.71594768798
 10503.886579236745 7917.8008341795248 -999913.48465588794
 5980.7020919004235 9645.3470162965223 -999935.59716784931
 260.38701286674996 11585.89908075677 -999932.84731580538
 -5875.0809720253028 13375.520870193286 -999893.28373833117
 -10210.37346293396 13876.301703700585 -999851.58724921546
 -0 -0 0
 0 0 -0
 6981.6452416725333 14859.723921399551 -999865.21353365399
 -59.237796417837686 14980.000060168955 -999887.7917491945
 -5904.2620151940764 15652.746971536097 -999860.05580896221
 -9346.3991038758031 16702.371108511554 -999816.8210343055
 -10684.625788788553 17780.173605018696 -999784.82894987403
 -10392.597294140396 18632.67380999892 -999772.38278928876
 -8906.0155699319566 19117.435889137181 -999777.57853019109
 -6600.9427931091996 19185.417853607141 -999794.15246140794
 -3793.5451824574538 18854.944833854621 -999815.03292872186
 -741.61891224213321 18184.443779993162 -999834.37428696232
 2352.7047694148619 17249.672723637024 -999848.44530118408
 5338.8416214000272 16127.921017005207 -999855.6830532148
 8112.3250126431331 14889.036343282703 -999856.24305679963
 10608.321957675873 13591.799837891989 -999851.35219311924
 12794.419625829309 12283.819192711 -999842.69293348305
 14663.063055396107 11003.265840770053 -999831.94724047056
 16223.980669901022 9781.1817420921816 -999820.53936441545
 17496.900641560129 8643.5702486815153 -999809.55544608377
 18504.848843857315 7612.9651408970813 -999799.78662281646
 19268.342357138088 6709.5037620176518 -999791.83510472591
 19800.683425684198 5951.6782197860766 -999786.23238282499
 20104.294624129423 5356.9144474293798 -999783.5369745139
 20167.591870135358 4942.0551603675358 -999784.39892256353
 19961.486946048444 4723.7948513957781 -999789.5902644241
 19434.387199509736 4719.1589192127858 -999799.99706605054
 18504.725202458176 4946.1346918863283 -999816.53861935646
 17050.739439199908 5424.4450194452957 -999839.91102616396
 14899.366332312076 6176.0135247968856 -999869.92441008892
 11822.24872149457 7223.1402637714018 -999904.02573441865
 7564.7105222019436 8576.9615765152048 -999934.6033040511
 1982.9109742368921 10188.864375334639 -999946.12610220618
 -4521.1902929561384 11788.182671294669 -999920.29561742733
 -9903.0425409831005 12654.627853437827 -999870.88673604373
 0 0 0
 -0 -0 0
 8920.4464184948301 13412.422837932976 -999870.25785814389
 2184.8857935097535 13738.164220220429 -999903.23987770313
 -3559.7792132558229 14711.767334738424 -999885.43937485258
 -7205.118083949289 16014.973286449134 -999845.79156189424
 -8959.5069271235825 17314.388973879384 -999809.95152583078
 -9201.7944801313879 18378.101149134305 -999788.76387789904
 -8287.7434614681952 19073.454096158988 -999783.73494329187
 -6529.6769199570808 19348.342727818104 -999791.48073636228
 -4199.818700158221 19210.639927753848 -999806.63772374112
 -1532.0115338721419 18707.581267925503 -999823.82415291772
 1279.0318136000706 17907.391952619339 -999838.83170792845
 4078.6271932114778 16885.059263336694 -999849.11840431811
 6751.5433171600334 15712.882264993983 -999853.75030239439
 9219.3085838324096 14455.325859970468 -999853.01314919186
 11435.507927097044 13167.108228341422 -999847.91664500267
 13379.581494456894 11893.323218764313 -999839.75499169214
 15049.810038157411 10670.562056012885 -999829.80667872878
 16456.157309819831 9528.3223462422102 -999819.1866331934
 17613.578159277917 8490.3230260016953 -999808.81986474851
 18536.242391779015 7575.6111015881679 -999799.48881484778
 19232.89720818034 6799.4861057281332 -999791.90967604716
 19703.224632611138 6174.3220429920821 -999786.80761769717
 19934.667688892507 5710.3698681320102 -999784.97723265598
 19898.846076710401 5416.6466108904442 -999787.32531689375
 19546.542803343113 5302.0595443584243 -999794.88937932916
 18800.336705014193 5376.9505903260297 -999808.79959226574
 17544.543777072402 5655.2125179129353 -999830.08934269997
 15613.762790520987 6156.8595251539309 -999859.14182564197
 12785.917506894861 6909.8919447625976 -999894.38127575174
 8798.3352538524978 7946.8088350762018 -999929.71629314986
 3442.21151900206 9281.3284821293619 -999951.00286037265
 -3085.5446059788005 10829.713238119482 -999936.59635282122
 -8956.6550531696976 12188.671749330124 -999885.60076202976
 -0 0 -0
 22778.600544536897 11548.5412752098 -999673.83008241607
 13365.376741537299 11683.013331589518 -999842.42453701212
 5007.8682468244488 12206.017836356932 -999912.96340441611
 -1082.4534131154792 13381.886827761022 -999909.87263829797
 -5005.3916252058652 14853.055914346722 -999877.15884736739
 -7149.7405847559094 16314.567131429192 -999841.34546881216
 -7878.3729708880483 17558.202082135555 -999814.80324056756
 -7495.2064808089026 18458.019908736616 -999801.54199764004
 -6260.5186432367364 18955.155345829491 -999800.73414262559
 -4405.0293740317893 19043.472528180751 -999808.95268560306
 -2135.1705229035033 18755.047080287866 -999821.82875543088
 367.93506186736494 18146.107962706643 -999835.27812815062
 2951.8540617008784 17284.794789619446 -999846.24939371494
 5495.5869538081415 16241.740979009111 -999852.99138123484
 7910.0795872521048 15083.756853229866 -999854.94493957271
 10136.075960161917 13870.266998705663 -999852.42693985312
 12139.699086535906 12651.816351373416 -999846.26780775643
 13906.534175982608 11469.912332007108 -999837.51150789903
 15435.112156182615 10357.595333677329 -999827.22384001408
 16730.587700708962 9340.3402008849316 -999816.40588666103
 17799.203144888175 8437.072401415202 -999805.98326710379
 18643.789978500961 7661.218464989759 -999796.83677578694
 19260.188620012967 7021.7787264535664 -999789.84779694502
 19634.064192137226 6524.4610936092631 -999785.9445555018
 19737.319968596759 6172.9550975219227 -999786.14354561921
 19523.159363662369 5970.4783305090923 -999791.57809863833
 18918.962865745212 5921.7693148295766 -999803.48343675339
 17816.593717457479 6035.7036782583646 -999823.05397976073
 16061.089059510001 6328.5969715757492 -999850.98403641814
 13442.217900783389 6827.8127933325441 -999886.33741559216
 9703.0260927542877 7574.0297940580213 -999924.23980885756
 4606.5282749261314 8616.6776158531175 -999952.26524275471
 -1821.0903370488245 9978.9137640968565 -999948.55113154335
 -8605.7311145651183 11460.018530272366 -999897.29940992931
 -13325.528823559012 12018.758367906867 -999838.97690021398
 23548.160226203629 9263.6848512735996 -999679.78287696582
 15381.001754679026 9616.7048498441036 -999835.45834944933
 7325.9027310111414 10470.505091305256 -999918.34650250757
 1260.4112151026582 11824.333770693336 -999929.29574767826
 -2832.0181163057223 13410.355990087723 -999906.06660106231
 -5292.2875220860078 14984.177715120111 -999873.72508281528
 -6438.9366167585695 16368.57555654004 -999845.29294761142
 -6529.5642588477331 17447.337630476999 -999826.46254247415
 -5779.6176330820854 18156.630394717416 -999818.449916146
 -4381.0256082532951 18476.897908933333 -999819.68917314429
 -2510.8790753275457 18424.017801667193 -999827.11058178102
 -331.84699774506947 18039.582354408012 -999837.21842410346
 2011.6711790034258 17381.172955954844 -999846.91228494688
 4398.0850045358347 16513.697839013585 -999853.96665311814
 6731.4925210635201 15502.537556485895 -999857.16896852246
 8941.8921716736604 14408.739057084924 -999856.20506309567
 10982.748439939789 13286.095230161029 -999851.41841687658
 12826.591946309803 12179.720118010164 -999843.55424080719
 14459.573991657726 11125.694663747718 -999833.55596730649
 15875.881886874187 10151.416308976946 -999822.43679627241
 17072.673749004847 9276.3942382595578 -999811.21834124101
 18045.858921832933 8513.3178437884962 -999800.91538018896
 18786.629464669128 7869.3033841264196 -999792.54679038585
 19278.292418230911 7347.2766199734542 -999787.15983338526
 19492.657600689756 6947.5075380022181 -999785.86129164265
 19385.133826081106 6669.3610867241023 -999789.84602227283
 18887.737402436745 6513.3627230843504 -999800.39481981308
 17899.623229183937 6483.6612335406953 -999818.76638982038
 16275.809927536598 6590.8167840319302 -999845.81768656813
 13817.705458662138 6854.3188000878308 -999881.0375887946
 10276.789144639197 7302.5803578837686 -999920.52680450224
 5403.2573170744836 7962.7131985329816 -999953.69893254736
 -878.56186991298148 8814.388589049835 -999960.76657178998
 -7990.1350448811345 9646.3154974912268 -999921.55009244964
 -13648.510808757739 9924.7132402561419 -999857.59897087433
 24871.116059406908 6936.549726472268 -999666.60035426402
 17166.549952455603 7592.8964645708484 -999823.81322211388
 9442.1553305438847 8714.6635522474426 -999917.44676342409
 3477.0427192780048 10196.963520107956 -999941.96437038179
 -713.45585170116294 11850.671586008499 -999929.52379840659
 -3417.5617041731648 13492.082465807509 -999903.13730017585
 -4910.4575690571382 14976.085396768509 -999875.79442281299
 -5410.7697883363317 16198.724375805052 -999854.15181360056
 -5096.4809391843983 17094.495224415085 -999840.88939943782
 -4124.8360037798329 17633.175962656529 -999836.01497116126
 -2643.7525408332108 17815.639806674881 -999837.7936199361
 -794.53524472634217 17668.129658470756 -999843.590722127
 1290.9864414818298 17235.333487601329 -999850.62716066698
 3495.3834049466836 16573.127606994101 -999856.54657864524
 5719.9118305559105 15741.891307912079 -999859.72789521876
 7886.6177859903601 14801.032623973029 -999859.35545613698
 9937.8639216629726 13804.995752196059 -999855.32001032867
 11833.663777244956 12800.72856950865 -999848.04132912948
 13547.643213556197 11826.405331962465 -999838.28567437956
 15062.496104173468 10911.143164647923 -999827.01912178402
 16365.638028353467 10075.44895266813 -999815.30855469836
 17445.406871029565 9332.1769900283398 -999804.26496976451
 18287.788359091202 8687.8194382942402 -999795.01828641898
 18873.262377337105 8144.0098555078821 -999788.71521472465
 19173.123123901165 7699.1706050976909 -999786.53427702736
 19144.476982946435 7350.28615733069 -999789.70903608261
 18723.181319705163 7094.806027402873 -999799.53301084461
 17814.244951953129 6932.6362554203733 -999817.27892217471
 16280.059543312853 6867.9669423036648 -999843.88315943908
 13929.055449220088 6910.0400247506004 -999879.10907326639
 10513.445989683676 7070.2973956981423 -999919.73595292063
 5760.8673816520059 7349.5633342946885 -999956.39721230138
 -490.56876688550034 7703.7357839581937 -999970.20545477048
 -7846.3711555394975 7989.3122614603017 -999937.30070903886
 -13993.982929508384 8004.5777636490766 -999870.03914338513
 26556.630906668132 4965.3188509390766 -999634.97886158188
 19063.372968241558 5772.8959796772078 -999801.61106245557
 11518.808493346207 7041.4999704559305 -999908.86301155447
 5614.4967304140164 8597.3097119992981 -999947.2804564148
 1349.4890762517239 10283.461259461343 -999946.21320536942
 -1545.802567043364 11958.793586097247 -999927.29623227543
 -3320.9738648446296 13506.843235817923 -999903.26348021883
 -4167.5872297314309 14837.64326909026 -999881.23072638072
 -4235.0792671109612 15887.666291580095 -999864.81394406967
 -3651.7403025157773 16619.800031820145 -999855.21303820051
 -2538.5869890414729 17022.594827176228 -999851.8824513203
 -1014.7662045217176 17107.892705760536 -999853.1343435985
 803.34754459455394 16906.67467639739 -999856.7492316633
 2806.3298032891703 16463.626132944049 -999860.52703744138
 4896.4061364081581 15831.249945879255 -999862.68893888558
 6990.8302422365568 15064.333149430575 -999862.08756972442
 9023.100989678871 14215.353083262535 -999858.24364519201
 10942.06302827487 13331.111968681775 -999851.26529417548
 12709.444604943505 12450.648578302664 -999841.71315654437
 14296.591101630314 11604.301438887591 -999830.45946349739
 15681.030936226116 10813.717811368024 -999818.56792913831
 16843.251523886593 10092.566361142211 -999807.20390600769
 17763.685763573296 9447.7277689606108 -999797.57546620257
 18419.594146437521 8880.7678555028633 -999790.90339619375
 18781.251892347685 8389.5511653380017 -999788.41762074851
 18806.738239650276 7969.8990960748952 -999791.37188974756
 18434.597109990194 7617.2255523498379 -999801.05196197738
 17573.843642751919 7328.0563859880522 -999818.71337219118
 16091.36056482487 7101.1833059888113 -999845.30869071325
 13798.510555610277 6937.7891919593176 -999880.72698076069
 10443.924927832564 6838.9913156597449 -999922.07327865611
 5735.0224820171434 6798.0492609604717 -999960.44723947754
 -539.30578392743155 6785.4284872584003 -999976.83328640938
 -8044.2501371511107 6737.8057142800608 -999944.94449138921
 -14406.101729028689 6602.8363344326008 -999874.4255081804
 28444.363173361937 3214.4068400852675 -999590.20893180429
 21067.666711364876 4095.5055955024313 -999769.66359919927
 13600.405167753685 5451.5143097695045 -999892.64922340692
 7704.7737267986113 7057.0133840138669 -999945.41602225311