# OOMMF OVF 2.0
#
# Segment count: 1
#
# Begin: Segment
# Begin: Header
#
# Title: Oxs_TimeDriver::Magnetization
# Desc: Oxs vector field output
# Desc:  MIF source file: /mnt/gpfs/work/plgrid/groups/plggspinsym/MF/switching-obrazki/p-ap/Anisotropy.mif
# Desc:  Iteration: 38600, State id: 270350
# Desc:  Stage: 0, Stage iteration: 38600
# Desc:  Stage simulation time: 5.68315e-09 s
# Desc:  Total simulation time: 5.68315e-09 s
# meshunit: m
# meshtype: rectangular
# xbase: 1.0000000000000001e-09
# ybase: 1.0000000000000001e-09
# zbase: 3.4999999999999998e-10
# xnodes: 35
# ynodes: 35
# znodes: 5
# xstepsize: 2.0000000000000001e-09
# ystepsize: 2.0000000000000001e-09
# zstepsize: 6.9999999999999996e-10
# xmin: 0
# ymin: 0
# zmin: 0
# xmax: 7.0000000000000005e-08
# ymax: 7.0000000000000005e-08
# zmax: 3.4999999999999999e-09
# valuedim: 3
# valuelabels: Magnetization_x Magnetization_y Magnetization_z
# valueunits: A/m A/m A/m
#
# End: Header
#
# Begin: Data Text
 -0 0 -0
 0 0 -0
 -0 -0 0
 -0 0 0
 0 0 0
 -0 0 -0
 0 0 0
 0 -0 0
 -0 0 0
 0 0 0
 0 0 0
 -0 -0 0
 0 0 0
 18090.82496554088 28359.792562340583 -999434.06196601456
 15736.066626688378 27479.507183294696 -999498.50069526536
 13637.864357236094 26546.18808145179 -999554.55506646435
 12007.178327848344 25827.539294415139 -999594.3006453159
 10557.391715352356 25385.516687581039 -999621.98706444679
 8979.5025745789371 25252.413577972427 -999640.77755061607
 6983.8031841339207 25463.917985972559 -999651.34690745478
 4390.6726087851494 26013.651451908645 -999651.94539508666
 1745.3093318425488 26664.610545734497 -999642.91246413591
 0 0 0
 -0 0 -0
 -0 0 -0
 -0 0 0
 0 -0 0
 -0 0 0
 -0 -0 0
 0 0 0
 0 -0 0
 0 -0 -0
 0 -0 0
 -0 -0 0
 0 0 -0
 -0 -0 -0
 -0 -0 -0
 -0 -0 -0
 -0 0 -0
 0 0 -0
 0 0 -0
 -0 -0 0
 0 0 0
 0 0 -0
 0 0 0
 23284.758346062703 26965.772232223339 -999365.13204968546
 21134.953601114143 25098.996828703552 -999461.53207338182
 19324.480040210899 22754.743024045023 -999554.29374350887
 17389.72030001858 22065.412611784857 -999605.27969501994
 15161.596944033843 20779.036690241941 -999669.12406672444
 13333.838809353452 19753.693957153333 -999715.95981941454
 11893.41110486829 19047.806462753797 -999747.8321263059
 10604.00137985909 18651.1566646067 -999769.81826308824
 9222.8841865653976 18588.259538891514 -999784.68432687828
 7539.8727943959848 18927.703905028877 -999792.42462779628
 5462.2643259445358 19758.14557354735 -999789.86759815086
 3340.6480200124151 20983.626365068605 -999774.23826350819
 2111.6906681722335 21349.96651637811 -999769.83335779421
 127.3886948021257 22810.406598337086 -999739.80070963409
 -2500.4338299824603 24026.836843306886 -999708.18689353915
 -0 0 -0
 0 -0 0
 -0 0 -0
 0 -0 -0
 -0 0 0
 -0 0 0
 -0 0 -0
 -0 0 0
 -0 0 -0
 -0 0 0
 0 -0 -0
 -0 0 -0
 -0 0 0
 -0 0 0
 -0 -0 0
 0 0 -0
 0 -0 -0
 -0 -0 0
 28065.42039131502 25023.749983537546 -999292.82200715353
 25302.290616347516 22826.163501945972 -999419.21151704318
 22400.929191477037 21284.477053986739 -999522.47068682592
 19762.456644939906 18909.340136423441 -999625.87109526212
 17708.304882692919 16608.776576836866 -999705.23879731784
 15879.872669855171 14945.039204740448 -999762.20945140661
 14174.352610363356 13608.007377186712 -999806.93629485252
 12767.69518724159 12653.405744124946 -999838.42558819486
 11621.207637950756 12029.445068063769 -999860.11020761786
 10587.297395719335 11703.918233243814 -999875.45596031321
 9509.3003336273032 11692.368126641204 -999886.42441767163
 8262.047070877692 12051.981618493446 -999893.23845961981
 6803.5191257851175 12850.163567060585 -999894.28712429642
 5249.0913971844911 14050.819364072762 -999887.50442972442
 3705.709373358517 15358.901797319621 -999875.17813656153
 1574.5843917557756 17098.469573068935 -999852.57064341824
 -1235.7354528545518 19052.215917897942 -999817.72640142171
 -4030.8646280104808 20129.685567525212 -999789.25173723639
 -7097.5429387791992 21537.082124351218 -999742.85642749222
 -0 0 -0
 -0 -0 -0
 0 0 -0
 -0 0 0
 -0 0 -0
 0 0 -0
 0 -0 -0
 -0 -0 -0
 -0 -0 0
 0 0 0
 0 0 0
 0 0 -0
 -0 0 0
 0 0 0
 -0 -0 -0
 30157.595529380658 21307.08923865591 -999318.03114927432
 26850.846076685233 19927.78287742304 -999440.80141574983
 23269.767017926541 17211.851920289166 -999581.04728751502
 20264.863034778198 14727.619127613965 -999686.16703494184
 17857.29967801852 12445.902209718195 -999763.08011768234
 15999.389674643146 10505.959553377639 -999816.80539181875
 14485.338133190313 9007.7323203818924 -999854.50728474057
 13209.576045451733 7879.5123743759623 -999881.70319565386
 12167.107608138691 7082.5315863085807 -999900.89470846101
 11306.103744558846 6566.5098665617115 -999914.52282997151
 10533.594298994109 6304.7377121029986 -999924.64399749914
 9752.0597405806257 6304.2982228926548 -999932.57430425449
 8882.6425045487995 6597.6619537556016 -999938.78288567276
 7881.7217801477691 7218.9985796419724 -999942.88062933239
 6735.1551399748068 8162.5719228759308 -999944.00348461734
 5366.1462522985967 9382.3268575593156 -999941.58650250011
 3513.4049972800599 10983.135615682477 -999933.5111483027
 1041.6862278393642 12964.633042406076 -999915.41301246022
 -2026.6578009487807 15104.383591219648 -999883.86838396732
 -5728.0318253027835 17451.858039793493 -999831.29692081909
 -8797.9770475607511 18656.369743626972 -999787.24510160636
 -0 -0 -0
 0 -0 0
 -0 0 -0
 -0 -0 -0
 0 -0 -0
 0 -0 -0
 0 0 -0
 0 -0 -0
 -0 0 -0
 0 0 -0
 -0 0 0
 -0 0 0
 -0 0 -0
 31433.319651548558 19073.534021656287 -999323.84476485301
 28175.099540815037 17087.933201286956 -999456.93569296587
 24204.414852193939 14270.339010838183 -999605.17391927214
 20779.782863924615 11537.940797104759 -999717.49836955965
 18116.002220125978 9238.651415605189 -999793.20751022373
 16086.435916495484 7334.0001305396181 -999843.70729709032
 14545.730595385894 5794.5101244496818 -999877.4151734123
 13345.382852634884 4600.4527038830938 -999900.36333198519
 12388.907917741828 3705.6201997841658 -999916.38817430171
 11625.197401776841 3068.5332984815068 -999927.71683195466
 11001.033568476469 2652.712013297707 -999935.96813966008
 10452.451128264865 2438.8085242102989 -999942.39758017729
 9914.6173003377316 2428.2150337918047 -999947.90071060089
 9330.0860294386275 2637.4137462002805 -999952.99566700356
 8649.8833890101305 3086.5184841285304 -999957.82557116076
 7819.768925725527 3788.8957590175887 -999962.24702879437
 6744.8446169730259 4763.4711025900633 -999965.90762592887
 5268.9969257722523 6077.7160038721695 -999967.64899649238
 3245.7515543325949 7790.280713960874 -999964.38767750375
 550.29422751853281 9930.1113492610784 -999950.54380946967
 -2880.6348219851602 12547.680198080696 -999917.1253982347
 -6596.3530428359491 15249.063846343983 -999861.96756269515
 -9327.0940319832916 16964.152316777163 -999812.59386601648
 0 -0 -0
 -0 0 -0
 0 0 0
 0 0 -0
 0 -0 0
 -0 0 0
 -0 0 0
 0 -0 0
 -0 -0 -0
 -0 -0 -0
 0 0 0
 32568.907180981925 17863.219481059867 -999309.84768229339
 29257.705961584939 15472.390178699698 -999452.14581991057
 25137.65862624484 12308.032393320029 -999608.22848623793
 21431.761530251388 9419.4070534347138 -999725.93962969293
 18491.323345361885 7030.1508306354226 -999804.30482181639
 16269.439756517771 5122.2436864444526 -999854.5233930914
 14611.358170075793 3604.9120069413379 -999886.74999814236
 13372.467193932616 2407.5215418408352 -999907.6862196693
 12435.116887367381 1481.2406994554763 -999921.58382244559
 11716.806647501046 784.09901351286203 -999931.04843820189
 11161.790302482397 281.80198287690257 -999937.6655696521
 10722.360966329476 -51.703302685709417 -999942.51249863161
 10350.954615194916 -230.50107411966965 -999946.40086747089
 10000.533247255431 -255.74920549116297 -999949.96071159188
 9625.4413199722621 -118.42954338642825 -999953.66735356231
 9178.4272104476422 196.55414879045188 -999957.85803223168
 8601.4282786926287 709.34543180533637 -999962.75543673371
 7811.8368642444857 1452.8513192502203 -999968.43171564699
 6696.8633469119877 2484.9348214567053 -999974.48823469796
 5128.6451913770052 3878.8601084351299 -999979.32550766261
 2973.7276315310828 5720.4559136285907 -999979.21644807886
 130.00081390288898 8098.6883972137412 -999967.19663498621
 -3331.8583281762521 10960.693859734682 -999934.37880202604
 -6974.3345599153672 13915.514499672719 -999878.85121831438
 -9671.0149246389574 15831.770222805966 -999827.89845149848
 0 -0 0
 0 0 0
 0 -0 -0
 0 -0 0
 0 -0 -0
 -0 -0 0
 0 -0 -0
 0 -0 0
 0 0 -0
 34023.691882864492 17089.727159502214 -999274.90192452737
 30481.902922913509 14551.153853204441 -999429.39596338593
 26139.600771034337 11191.728646309863 -999595.65149186098
 22201.863037775958 8125.9599354727898 -999720.48396178149
 19017.757420520218 5634.6767566312983 -999803.26830859203
 16581.603405986694 3680.3255688051727 -999855.74241097097
 14766.399814459315 2159.3120136777775 -999888.63920346007
 13426.743182897546 972.26293264187984 -999909.38453056349
 12439.544725695416 46.212395533751099 -999922.62480225519
 11710.342265032792 -669.25783613419492 -999931.20762279653
 11170.961099230308 -1211.0605718055974 -999936.86948747467
 10771.991952885657 -1606.5909519319684 -999940.68976858817
 10473.140209764497 -1875.0442739320067 -999943.39716961852
 10237.28390939545 -2026.9264752855597 -999945.54331084574
 10028.0766222449 -2064.0635575851566 -999947.58728689828
 9808.1988717333825 -1980.6588902818164 -999949.93685946718
 9536.0901913047674 -1764.2500194609686 -999952.9740971484
 9160.4549108401261 -1394.6432180646502 -999957.06959655066
 8613.893637201425 -839.58948345567819 -999962.54726159933
 7809.4778291635012 -49.586976499385557 -999969.50433359109
 6642.7139843396671 1042.501152838948 -999977.39351560769
 4995.1093908868152 2521.2783910743569 -999984.34589619841
 2748.907932751813 4479.2238742505779 -999986.18993397208
 -169.71872367305863 6967.5895221447927 -999975.71165094106
 -3711.5333497801817 9907.2022523930373 -999944.03436578554
 -7500.2342238286556 12875.636418448892 -999888.9760735475
 -10440.309131018952 14733.81385033504 -999836.94404371374
 0 -0 0
 0 -0 0
 0 0 -0
 0 0 -0
 0 0 -0
 0 -0 0
 -0 0 -0
 36327.404915717671 16237.569074973022 -999208.01688268338
 32265.422410650528 13847.54848308994 -999383.40386343771
 27488.298286478701 10508.303744979785 -999566.89071303129
 23202.677050851627 7383.2867451804041 -999703.5174763127
 19733.497769527643 4815.9302509680692 -999793.6766561378
 17058.7634681378 2808.5925297698545 -999850.5440299263
 15052.601348540822 1262.7940634726524 -999885.90576315019
 13571.669330144992 72.397597423253444 -999907.89803370449
 12488.096776773975 -849.33139400135667 -999921.65996895835
 11700.262155816026 -1565.222023088485 -999930.32454541721
 11131.938231083494 -2118.9418719922642 -999935.79295700905
 10727.471348461821 -2541.1970663680813 -999939.22999147186
 10445.498940537622 -2853.6783681029128 -999941.37231722474
 10252.711406897992 -3070.9481772288846 -999942.72395277722
 10119.322372108776 -3201.0245505308453 -999943.6747920136
 10016.222848985541 -3245.6661708870151 -999944.56892917154
 9912.6798461968956 -3200.6846922247678 -999945.74572612089
 9773.5992411656935 -3055.8369729223141 -999947.56793457316
 9556.0329546631347 -2793.6159282021972 -999950.43774389883
 9205.4254190595038 -2386.7260573547378 -999954.78081840347
 8652.6007487351926 -1795.2230914901916 -999960.95407487545
 7811.9447230177311 -964.8787958210936 -999969.02078442101
 6580.1969979752994 173.12059796910194 -999978.33528368315
 4838.2652399473627 1697.3288173598717 -999986.85504578205
 2461.0159132939257 3677.8025391503534 -999990.2085366426
 -655.67067846579994 6138.1607297527471 -999980.94635788817
 -4509.3925705215142 8964.1713517377502 -999949.65323791257
 -8755.8640702512675 11695.987810509547 -999893.26366043685
 -12282.622162969023 13183.082994577417 -999837.65858041169
 0 0 0
 0 0 0
 -0 0 0
 0 -0 0
 -0 0 -0
 39921.7462525765 14524.178792325154 -999097.24371882516
 35100.097415110511 12888.541609835891 -999300.68981094018
 29553.314578818041 9907.9672489185759 -999514.0988412319
 24670.968527434157 6905.1850546390106 -999671.77700047102
 20764.319712915567 4352.5741892438209 -999774.92373273044
 17765.975612306393 2323.7228916068143 -999839.47232666577
 15515.592559867488 755.72242046285714 -999879.34035619511
 13850.640122496778 -446.24786339718941 -999903.97570518823
 12631.686385949741 -1369.6361900907489 -999919.2790399401
 11747.644258692562 -2083.3393077153387 -999928.82374282018
 11114.145950731207 -2637.520953644444 -999934.75749321026
 10668.940603400277 -3067.455363136472 -999938.3803135053
 10366.462136944476 -3397.7996568772674 -999940.49393964175
 10172.519059495893 -3645.6560856745964 -999941.6128193133
 10059.63633896781 -3822.3105350237247 -999942.09515296505
 10003.47759124858 -3934.0213012596873 -999942.22528728249
 9980.2239741170542 -3982.3377185246613 -999942.26639127603
 9964.4072364674957 -3964.1399543245711 -999942.49643809453
 9926.6951757709812 -3871.2921584015144 -999943.23529884021
 9831.4008535982775 -3689.6994877783318 -999944.86331744597
 9633.72708092211 -3397.7890384961652 -999947.82180480787
 9276.8463105560895 -2964.8026950050944 -999952.57390913798
 8688.6518962586561 -2349.4878247556148 -999959.4927971767
 7777.7856446028845 -1499.6700587129531 -999968.62802799058
 6429.2551066859332 -354.31178142313547 -999979.26935608767
 4501.2998140408026 1148.9565606818642 -999989.20904118044
 1829.0430948770393 3056.0881126468435 -999993.65744328825
 -1745.4942067709294 5353.4045067546531 -999984.14702942222
 -6265.5645096876851 7864.181928078905 -999949.44739420549
 -11351.311507232011 10025.083392797396 -999885.31613882247
 -15581.525484640106 10617.840718302401 -999822.22295868793
 0 0 0
 -0 -0 -0
 0 -0 -0
 0 0 -0
 37946.784644767009 11459.319912096696 -999214.05390550615
 32503.226197781074 9198.4923204261522 -999429.30116430297
 26877.213446131977 6502.698159212393 -999617.59203908651
 22309.808985319367 4069.2980090048272 -999742.82354851277
 18826.275820730996 2074.706802953971 -999820.61737613892
 16229.081438227027 507.82746498915265 -999868.17082400271
 14313.860969730184 -700.50710049231623 -999897.30606394866
 12912.304899064105 -1627.6831804425938 -999915.30792845553
 11894.689549682767 -2341.0489977041011 -999926.51522504725
 11163.952560802716 -2893.1930621751653 -999933.49558714393
 10648.845724715227 -3322.8053369091181 -999937.7785889603
 10297.608222031899 -3657.4891832777962 -999940.28923620214
 10072.469217272113 -3916.6797380329381 -999941.60078661423
 9945.0084795286348 -4113.8560054873014 -999942.08482047019
 9892.3852047896617 -4257.9092680700569 -999942.00378003169
 9894.4015760151942 -4353.8476971751397 -999941.57070684992
 9931.2401481971629 -4403.0634846657758 -999940.99000944488
 9981.5651867474062 -4403.3024806613566 -999940.48787099659
 10020.695667727488 -4348.3337551070663 -999940.33704611054
 10018.611109433486 -4227.2955977685197 -999940.87695391639
 9937.6223831740717 -4023.7533101463196 -999942.52488363988
 9729.4735542416529 -3714.6447374125523 -999945.76790885616
 9331.4988606095267 -3269.3427684649055 -999951.11606861895
 8661.2996772752558 -2649.1386721593485 -999958.98113482445
 7609.6050821275849 -1807.8040275605779 -999969.41240974562
 6031.7405396931954 -694.53051461103598 -999981.56769683794
 3740.8550702081461 738.13214466122838 -999992.73055571783
 515.05385329374178 2514.5331270161337 -999996.7059159152
 -3840.9275004751184 4589.6577144444464 -999982.09099863388
 -9233.2330511049731 6746.2030990930734 -999934.61593804695
 -14267.496975925094 8388.8239525948047 -999863.02370011387
 -0 0 -0
 -0 -0 -0
 0 0 -0
 42141.73462793629 9887.4054335539859 -999062.71745888959
 36642.408724278859 8557.9773854636423 -999291.79667700292
 30144.661560512577 6175.8187662285891 -999526.46720433026
 24632.892117121868 3887.4926595217962 -999689.00565464271
 20423.352643838123 1961.0332031868902 -999789.49835230864
 17311.699170848486 420.53833915808656 -999850.05286759045
 15036.797337201049 -780.7638921836483 -999886.63614110998
 13381.193734375764 -1707.055225058248 -999909.01066882163
 12181.127877870138 -2419.5642455408115 -999922.87994249084
 11317.284119995295 -2969.3650631974442 -999931.54863283946
 10703.829948858123 -3396.0839162184602 -999936.94533128443
 10279.363346652683 -3729.1452802828926 -999940.21229504806
 9999.9298995680383 -3989.8489892144567 -999942.03957381798
 9833.6504831137117 -4193.3912998213609 -999942.85576105921
 9756.5685597989959 -4350.4173620067077 -999942.93999143492
 9749.4290886947656 -4468.0305042335331 -999942.49101428722
 9795.1984088140161 -4550.3333882583929 -999941.67257604958
 9877.1103715036588 -4598.6344062043845 -999940.64586469694
 9977.0228305472428 -4611.4021385797423 -999939.59516850591
 10073.842597989464 -4584.015076281974 -999938.75037478737
 10141.804428424539 -4508.3144578572364 -999938.40755502763
 10148.345651546053 -4372.0018689669869 -999938.94647633086
 10051.259949895397 -4157.9351579173072 -999940.84012437577
 9794.6603754023508 -3843.4087595244127 -999944.64488652453
 9303.1741568212601 -3399.5074443496478 -999950.94594672171
 8473.801718269533 -2790.7545430732121 -999960.20239483519
 7165.3821401930199 -1975.5107540157367 -999972.37694650632
 5187.5668704662257 -908.2165277141994 -999986.13205019175
 2297.8738609893385 453.79466860935037 -999997.25691929669
 -1763.1944079538778 2131.9932150972154 -999996.17286788172
 -7100.3864883431261 4073.1213319884082 -999966.49653592461
 -13086.968881947616 5945.4064642665335 -999896.68635687442
 -17572.745398282492 6508.5821599551309 -999824.40307157661
 -0 -0 0
 0 0 -0
 40442.562600095116 7447.5203177195699 -999154.10901995201
 34402.268487354631 5840.7876863627516 -999390.99912002764
 27958.944622844218 3781.6044019714568 -999601.91920770321
 22782.66311062314 1933.2709698695483 -999738.5721902228
 18931.734121928475 428.58725988935532 -999820.68680143694
 16133.654659124308 -755.01903782231966 -999869.55905937683
 14113.821815666817 -1672.5664771689665 -999898.99617668136
 12658.291119875317 -2379.9150447309898 -999917.04839466768
 11612.059954061227 -2925.2788048165271 -999928.29883323994
 10865.526474122707 -3347.3893507287858 -999935.3655706828
 10341.752285927198 -3676.0324673377877 -999939.76565838966
 9986.7260542160711 -3933.4627892341828 -999942.39492742973
 9762.2749220709957 -4136.0111311678347 -999943.79412058392
 9640.9198460266489 -4295.5122350518004 -999944.29906828352
 9602.0796100629068 -4420.3919443079167 -999944.12854030041
 9629.234374916512 -4516.377698896229 -999943.43848931475
 9707.7587366043499 -4586.8902209600219 -999942.35826792161
 9823.2168098183574 -4633.1836578335478 -999941.01727086876
 9959.9056971294649 -4654.3062965288491 -999939.56702962937
 10099.458406489053 -4646.9129661623037 -999938.2016603729
 10219.277368643523 -4604.9604195332522 -999937.17838152067
 10290.548187552044 -4519.2917313414018 -999936.83831542428
 10275.477515826615 -4377.1272537626173 -999937.62571413745
 10123.303574609745 -4161.4455655073143 -999940.0987536913
 9764.4904367984218 -3850.2396947467669 -999944.91367314965
 9102.521040657999 -3415.6266681066454 -999952.73768572102
 8003.0354926482523 -2822.8993406522191 -999963.99068277236
 6281.5910924495793 -2029.9675998978321 -999978.21018504736
 3696.3162290627533 -989.05284905007113 -999992.67948360322
 -32.944523226733288 342.39926739874227 -999999.94083869841
 -5112.4766208957399 1956.3505812001006 -999985.01752536476
 -11278.842994437888 3643.6252625718298 -999929.75338053261
 -16628.284939341578 4738.8422569628656 -999850.51058347698
 0 0 0
 -0 -0 0
 38382.759023829167 5505.6860893463318 -999247.94282020116
 32280.455423099458 3760.0715187419787 -999471.77752043155
 26124.251142896344 1973.5687081876024 -999656.75535594556
 21304.024880113589 491.66127808441337 -999772.92261447792
 17767.601616510554 -674.24051609122159 -999841.91637104482
 15223.718484216868 -1576.8888007466967 -999882.86904878181
 13402.762383761883 -2272.3340688504736 -999907.59696002118
 12100.389433825507 -2808.0331335682804 -999922.8447862718
 11171.169470966066 -3221.8085508486879 -999932.41017696424
 10513.89037603697 -3542.9797129992089 -999938.45080780552
 10058.558174392125 -3793.8472113544208 -999942.21439580643
 9756.6734007788145 -3991.1410047773679 -999944.4375152206
 9574.3147937467129 -4147.2934948282709 -999945.56474485039
 9487.2396796322701 -4271.4709943605876 -999945.87194447941
 9477.3777434937983 -4370.325404023456 -999945.5383004467
 9530.258246831836 -4448.4843252271439 -999944.6910529387
 9633.0771153561182 -4508.8119636094834 -999943.43562021863
 9773.1643653635492 -4552.4998114048258 -999941.87831281207
 9936.6744336249321 -4579.0237905933172 -999940.14572989568
 10107.301403237654 -4586.008228516198 -999938.4035963777
 10264.826473127892 -4569.0041400593664 -999936.87677705172
 10383.232404809138 -4521.1923044321538 -999935.87159626093
 10428.066226401734 -4432.9832964951847 -999935.79998611461
 10352.604624286123 -4291.4779481039595 -999937.20142542676
 10092.294790992319 -4079.6985706491569 -999940.74906737579
 9556.8924417641374 -3775.4920409447545 -999947.20433966175
 8619.9989405112337 -3349.9980919872773 -999957.23565113009
 7106.8296977022292 -2765.770184138587 -999970.92132068332
 4784.779061978441 -1975.3656316166662 -999986.60182021931
 1372.5101934228655 -923.78995806822422 -999998.63141300459
 -3381.680609577244 434.13905037392408 -999994.18786287925
 -9376.5508962474305 2067.6309276843645 -999953.90153528424
 -14958.879731867886 3622.6664044807121 -999881.54708709824
 -0 0 -0
 44099.400755970986 5111.5220434999928 -999014.0715702473
 37943.163353403979 3833.6948052281073 -999272.54497403116
 30774.917092449588 2056.5805609610993 -999524.22429591441
 24723.703670851697 565.60096265403638 -999694.16251789068
 20171.384067310868 -588.36145310669849 -999796.36381395662
 16880.112692394428 -1470.1971043569511 -999856.43985322514
 14532.007429209087 -2144.1607734770341 -999892.10584675311
 12862.042966387105 -2660.8943787302933 -999913.74002552626
 11674.979527385916 -3058.7504138532536 -999927.16679713258
 10833.672736015638 -3366.6268510592399 -999935.64660866768
 10243.618398007782 -3606.3111354489192 -999941.02966230479
 9840.065723260941 -3794.2302451295914 -999944.38691529678
 9578.5459032489416 -3942.7607156919526 -999946.35160908417
 9428.1964375503976 -4061.2232442124828 -999947.30640054005
 9367.1050716713853 -4156.6158714352687 -999947.48856481153
 9379.0177687910364 -4234.127434212035 -999947.05169352004
 9450.9684742505815 -4297.4553492043788 -999946.10408382548
 9571.5016469118145 -4348.9714036850737 -999944.73487485934
 9729.2744265187011 -4389.7642580034826 -999943.03397188208
 9911.8404432400657 -4419.5996140575717 -999941.10954509676
 10104.45451587344 -4436.8118393872473 -999939.10549574881
 10288.692061069421 -4438.146111202921 -999937.22086677433
 10440.659351565968 -4418.5353961852779 -999935.73252347449
 10528.474318058037 -4370.7945597772559 -999935.02158062754
 10508.630376465277 -4285.1670389867231 -999935.60094191006
 10320.736048795221 -4148.6460980871088 -999938.13365775975
 9880.1094989434823 -3943.9407055382094 -999943.41278294346
 9067.8821185609522 -3647.9630516914008 -999952.23179882823
 7719.197112864983 -3229.7576956310872 -999964.9907177554
 5612.9990680630899 -2648.1008674170007 -999980.74071616889
 2475.5319475648603 -1849.9616953172942 -999995.22468024935
 -1965.3212758580989 -774.80959953533954 -999997.76858869381
 -7766.2464211069346 610.5566337405636 -999969.65585817839
 -14142.751310792082 2113.557503070082 -999897.75250274583
 -18811.351297283338 2667.8075133217544 -999819.49164108711
 43290.145686753531 2551.6562337725959 -999059.28369485901
 36712.498866671216 1646.7369618322721 -999324.51220028778
 29505.601924813691 443.82100587399566 -999564.51641600847
 23660.669124492906 -603.97649214345972 -999719.86473660613
 19330.487772495788 -1424.9348181589683 -999812.13325466355
 16224.734196093204 -2052.7971549566491 -999866.26306926995
 14021.252114645094 -2532.1157489718698 -999898.49128747638
 12461.773726385689 -2899.6363051550998 -999918.14480230818
 11358.838096012822 -3183.1042851779812 -999930.41990141384
 10581.794933723737 -3403.1451585324157 -999938.22020113328
 10041.141305273168 -3575.160675711526 -999943.19524032471
 9675.8976760738533 -3710.753707012529 -999946.30221381783
 9444.415143948876 -3818.7435529968907 -999948.10876378242
 9317.9464245521976 -3905.8788386285928 -999948.95868985576
 9276.1806377443991 -3977.3345954615793 -999949.06534397649
 9304.1257032580706 -4037.036109643112 -999948.56646946969
 9389.8709270843301 -4087.8523029606345 -999947.55851870647
 9522.9306663625775 -4131.6808404869344 -999946.12005095358
 9692.9284752184158 -4169.4607104736333 -999944.32981789473
 9888.4572255166677 -4201.1266260765315 -999942.28280874831
 10095.933865181427 -4225.5299946655041 -999940.10671422433
 10298.28153563257 -4240.322653265056 -999937.98060740205
 10473.20316621798 -4241.8048356532336 -999936.15751565632
 10590.773664491586 -4224.7025326133362 -999934.99158780242
 10609.964486473053 -4181.8386305127751 -999934.96832507255
 10473.646401024205 -4103.6215319340126 -999936.72950911697
 10101.538980806559 -3977.2827448908533 -999941.06832962227
 9380.7317879089478 -3785.79757907559 -999948.83349490119
 8154.0924264385512 -3506.5743403206675 -999960.60658062762
 6209.242126084574 -3110.435225528247 -999975.88496169623
 3277.5285536507081 -2562.9036246094111 -999991.34462833789
 -929.11222254252539 -1834.595851502281 -999997.88550203422
 -6567.8982584650093 -942.21951336823201 -999977.98722514627
 -13214.574089624995 -66.593224336278865 -999912.68148622464
 -18717.298201668735 342.07791275680393 -999824.75751040049
 42458.815515569266 256.07870257997803 -999098.18506927171
 35746.542811839689 -244.50333799662647 -999360.85819643678
 28605.225003295138 -931.64836067698536 -999590.35266145051
 22920.212398066502 -1568.6726289019002 -999736.06673452118
 18746.896268449389 -2085.8022006803835 -999822.08582801372
 15769.320286270833 -2487.7387858041498 -999872.56172646431
 13664.951521748182 -2797.0264816285053 -999902.71813950443
 12181.028303462668 -3035.5023281892418 -999921.20103290433
 11135.771971397598 -3220.4609771428732 -999932.8093495561
 10403.083543092918 -3364.9431215101486 -999940.22471874987
 9896.8573107999873 -3478.7557798499543 -999944.97372285114
 9558.5953939072406 -3569.3697768159909 -999947.94507188827
 9348.4656369308832 -3642.5653439947782 -999949.66768730385
 9239.0568040010112 -3702.8742513776092 -999950.46304887056
 9211.0694747462385 -3753.8662789664304 -999950.53111996059
 9250.3090066162022 -3798.3265257553098 -999950.00099949294
 9345.5516508432465 -3838.3439417781146 -999948.96258765459
 9486.9567553319393 -3875.3413660637125 -999947.48831167095
 9664.8174187254463 -3910.058113439919 -999945.64989793918
 9868.457663786201 -3942.509760705284 -999943.53348582878
 10085.130390038272 -3971.9269377002506 -999941.25524523575
 10298.72734951681 -3996.6857679948967 -999938.9794971752
 10488.105537448773 -4014.214153942622 -999936.94087525422
 10624.74336333682 -4020.8660287074199 -999935.47165046702
 10669.383314348608 -4011.7243357030775 -999935.03305342107
 10567.190453481315 -3980.3055720350558 -999936.24379430956
 10240.903780355418 -3918.1256884580334 -999939.88428347569
 9581.4850508872787 -3814.1597129079473 -999946.82225101569
 8436.286686327805 -3654.385317654599 -999957.73637434107
 6596.5122426174185 -3422.1248636274654 -999972.38716259087
 3791.0998473105351 -3101.160272176468 -999988.00511151832
 -290.47541596412981 -2686.3149047555116 -999996.34966147016
 -5878.1407987444136 -2209.1692096441707 -999980.28332170285
 -12686.803060817343 -1775.9559725541251 -999917.94213749364
 -18527.551008444651 -1545.9258373020514 -999827.15504577826
 41890.067481423022 -1496.1609438704713 -999121.10564677371
 35152.631158518336 -1740.6172948531046 -999380.4394594013
 28065.855798939483 -2065.6604284218379 -999603.94196164887
 22475.503375952587 -2372.5359060284331 -999744.578790689
 18394.135567106729 -2626.5789724286328 -999827.36352814466
 15491.68990938724 -2827.1206695016958 -999875.99977820809
 13445.429585062562 -2983.6213160287616 -999905.15471574385
 12006.015561529137 -3106.0380456284802 -999923.10110227752
 10995.109053814924 -3202.4517891788291 -999934.42378959665
 10289.270260959755 -3279.0573021294281 -999941.68765018811
 9804.2955288907979 -3340.6297576778306 -999946.35655219236
 9483.0290996278509 -3390.9403085685494 -999949.28555548238
 9286.5834714269022 -3433.045248517019 -999950.98558266845
 9188.228983853809 -3469.4647891376781 -999951.76846796821
 9169.1702499656785 -3502.2880549543029 -999951.82898743043
 9215.6200199818195 -3533.2189662352184 -999951.29316951428
 9316.7149842413146 -3563.585980908907 -999950.24860082858
 9462.9815681409909 -3594.3209204672476 -999948.76510597358
 9645.1123321479008 -3625.9270775064592 -999946.91082123399
 9852.8949797408259 -3658.4383064206563 -999944.76661947498
 10074.119305936105 -3691.3852819978347 -999942.44124094967
 10293.309615683396 -3723.7623302376151 -999940.08889096149
 10490.063046027701 -3754.0013006660733 -999937.93109948817
 10636.744845610358 -3779.9336593337157 -999936.28385043622
 10695.175097122172 -3798.7367239089303 -999935.58934010554
 10611.863365922805 -3806.8387862541022 -999936.44614763325
 10311.217908706996 -3799.7867447880076 -999939.61837999651
 9686.1724957125189 -3772.0936201885243 -999945.97322660568
 8585.9879121670765 -3717.2010053763775 -999956.23065625131
 6802.4428334808636 -3627.9158419915138 -999970.28205749253
 4060.3794727259956 -3498.2101777700418 -999985.63781890844
 33.856639496309903 -3327.9361459624997 -999994.46183203254
 -5540.6808049197061 -3131.4766839306603 -999979.74714990903
 -12414.500995055021 -2945.0485588150132 -999918.60011404427
 -18357.269271909579 -2815.5281504568857 -999827.52685956424
 41632.302717292521 -2980.2169186351184 -999128.55513070675