# OOMMF OVF 2.0
#
# Segment count: 1
#
# Begin: Segment
# Begin: Header
#
# Title: Oxs_TimeDriver::Magnetization
# Desc: Oxs vector field output
# Desc:  MIF source file: /mnt/gpfs/work/plgrid/groups/plggspinsym/MF/switching-obrazki/p-ap/Anisotropy.mif
# Desc:  Iteration: 53900, State id: 377450
# Desc:  Stage: 0, Stage iteration: 53900
# Desc:  Stage simulation time: 7.93376e-09 s
# Desc:  Total simulation time: 7.93376e-09 s
# meshunit: m
# meshtype: rectangular
# xbase: 1.0000000000000001e-09
# ybase: 1.0000000000000001e-09
# zbase: 3.4999999999999998e-10
# xnodes: 35
# ynodes: 35
# znodes: 5
# xstepsize: 2.0000000000000001e-09
# ystepsize: 2.0000000000000001e-09
# zstepsize: 6.9999999999999996e-10
# xmin: 0
# ymin: 0
# zmin: 0
# xmax: 7.0000000000000005e-08
# ymax: 7.0000000000000005e-08
# zmax: 3.4999999999999999e-09
# valuedim: 3
# valuelabels: Magnetization_x Magnetization_y Magnetization_z
# valueunits: A/m A/m A/m
#
# End: Header
#
# Begin: Data Text
 -0 0 -0
 0 0 -0
 -0 -0 0
 -0 0 0
 0 0 0
 -0 0 -0
 0 0 0
 0 -0 0
 -0 0 0
 0 0 0
 0 0 0
 -0 -0 0
 0 0 0
 18075.960794395643 32933.544013774881 -999294.07149249723
 15676.913446033113 32448.290773393805 -999350.46045453497
 13556.033765377199 31875.511384003261 -999399.91280896158
 11958.815690312638 31420.337416594299 -999434.714788271
 10585.925600885894 31137.559471720931 -999459.04897065088
 9101.5241907810778 31051.718534546137 -999476.33940651931
 7181.9881611792289 31183.050526677733 -999487.88707312662
 4607.3275345916099 31509.568262010194 -999492.83121037472
 1897.4891768667355 31837.674110391068 -999491.25160856918
 0 0 0
 -0 0 -0
 -0 0 -0
 -0 0 0
 0 -0 0
 -0 0 0
 -0 -0 0
 0 0 0
 0 -0 0
 0 -0 -0
 0 -0 0
 -0 -0 0
 0 0 -0
 -0 -0 -0
 -0 -0 -0
 -0 -0 -0
 -0 0 -0
 0 0 -0
 0 0 -0
 -0 -0 0
 0 0 0
 0 0 -0
 0 0 0
 23063.585138647064 31503.202744663075 -999237.51894000696
 21061.060696886019 30091.124793609844 -999325.25032192457
 19488.614822348474 28080.346046025785 -999415.67331028054
 17614.905336198757 27399.091550884601 -999469.36165756639
 15300.784301939846 26307.588278564828 -999536.79111812147
 13400.254118745948 25523.328750726974 -999584.41008202767
 11950.14259523341 25024.014003218959 -999615.42245761701
 10695.38142242984 24765.272476889742 -999636.07882837753
 9358.2095534752134 24756.195658519817 -999649.71599579335
 7685.0501490364768 25060.518652529972 -999656.39617274131
 5534.5653273540411 25787.021744859248 -999652.13854428742
 3253.4849022168455 26936.220371798678 -999631.85967038537
 1959.6703328324043 27486.030491946705 -999620.26681134384
 202.41849494221566 28814.732252149031 -999584.74889925646
 -2270.9059100990698 29673.893257646374 -999557.05342180538
 -0 0 -0
 0 -0 0
 -0 0 -0
 0 -0 -0
 -0 0 0
 -0 0 0
 -0 0 -0
 -0 0 0
 -0 0 -0
 -0 0 0
 0 -0 -0
 -0 0 -0
 -0 0 0
 -0 0 0
 -0 -0 0
 0 0 -0
 0 -0 -0
 -0 -0 0
 27839.192389237927 29439.833238140633 -999178.80060879246
 25293.562015403542 27688.823543622333 -999296.53495413612
 22489.539986065221 26384.825180150878 -999398.85010511603
 19920.071541383553 24299.047283026048 -999506.25163173617
 17981.443852701883 22192.592761540516 -999591.9950177134
 16202.030370434935 20570.186791959935 -999657.12203095888
 14443.980606908064 19305.670069591833 -999709.28900725488
 12972.139507476089 18475.697316518068 -999745.15362929716
 11795.010091334583 17984.092358266069 -999768.69832926593
 10759.027367794657 17762.283630848156 -999784.34905249265
 9680.1895917424063 17809.467848104017 -999794.53728475387
 8399.3119633396054 18187.124360989132 -999799.31989675818
 6848.6717198491424 18995.864389434209 -999796.10562942864
 5169.4269093368448 20263.715701171946 -999781.30551206612
 3582.6017540004082 21711.260785762417 -999757.8637448994
 1516.2694019681887 23442.247239229902 -999724.04290958005
 -1282.7598604815732 25246.262608189081 -999680.43931621383
 -4052.969840178675 26227.330207581341 -999647.78826627589
 -6922.6502791012826 27280.164674669595 -999603.85629930231
 -0 0 -0
 -0 -0 -0
 0 0 -0
 -0 0 0
 -0 0 -0
 0 0 -0
 0 -0 -0
 -0 -0 -0
 -0 -0 0
 0 0 0
 0 0 0
 0 0 -0
 -0 0 0
 0 0 0
 -0 -0 -0
 30313.983580968437 25865.905920491725 -999205.69319353113
 27034.390219304096 24768.446893542601 -999327.60683569219
 23517.92713882502 22359.23804315467 -999473.34710697632
 20557.681557055465 20057.120736912311 -999587.46172445733
 18174.89222011216 17917.414815941171 -999674.26671846502
 16355.928767857162 16073.163132674134 -999737.03393495013
 14859.672934587037 14611.629733070944 -999782.82161518512
 13557.386484208735 13522.481398613718 -999816.6530762238
 12473.375617397096 12793.106850802054 -999840.36291690648
 11581.287040871704 12359.320602340453 -999856.55020344071
 10788.638375463404 12173.393388353099 -999867.69813581638
 9982.7221013091348 12231.8591397973 -999875.35567261197
 9065.8004960668532 12572.664085718188 -999879.86247306399
 7985.6738416591334 13252.177369949159 -999880.29723974969
 6748.2186403597152 14290.16618913393 -999875.11855004635
 5319.2195831023873 15626.555944400256 -999863.74904401007
 3433.3461352599329 17291.068179689795 -999844.60347372002
 905.28898777437882 19279.693987068204 -999813.71957560838
 -2212.3366196918628 21381.56473329716 -999768.9404338568
 -5959.9065746585884 23524.544251712236 -999705.49429888139
 -9158.4020790737395 24482.795539609979 -999658.29981745454
 -0 -0 -0
 0 -0 0
 -0 0 -0
 -0 -0 -0
 0 -0 -0
 0 -0 -0
 0 0 -0
 0 -0 -0
 -0 0 -0
 0 0 -0
 -0 0 0
 -0 0 0
 -0 0 -0
 31830.138452549221 23752.393539257275 -999211.02180032432
 28649.332017652661 21982.418258468493 -999347.78183695977
 24673.589556160718 19353.100689906136 -999508.21480971354
 21220.32577351695 16771.681756743808 -999634.13730480231
 18539.334772442817 14574.565324049472 -999721.89888579014
 16504.242311991104 12744.422786251902 -999782.57119913457
 14970.328455441253 11257.017559865903 -999824.56902278261
 13772.845570888898 10093.754424504599 -999854.2017946908
 12802.416081441788 9229.4713348882542 -999875.44974429475
 12014.254775583293 8636.544485645918 -999890.52789869683
 11364.706044089387 8275.8669704077747 -999901.17185770872
 10790.544928816624 8119.1514566671904 -999908.81760276668
 10219.82727214835 8162.8755696205017 -999914.45763773343
 9586.5189148443242 8427.1595346047579 -999918.5375005675
 8839.4008026102329 8942.9070814577226 -999920.94157807471
 7933.5651012650587 9731.7660626777233 -999921.17253015761
 6786.6823379813568 10803.076475621529 -999918.61392890639
 5236.0250075772037 12198.795164573889 -999911.88283700927
 3113.7776538036169 13969.975248589071 -999897.56684386241
 286.74396308240819 16137.088160223509 -999869.74759896065
 -3325.5702039723378 18718.623995084345 -999819.26051589393
 -7253.5879466156866 21330.131338307558 -999746.17326548987
 -10103.00844409903 22903.713899706581 -999686.62545318611
 0 -0 -0
 -0 0 -0
 0 0 0
 0 0 -0
 0 -0 0
 -0 0 0
 -0 0 0
 0 -0 0
 -0 -0 -0
 -0 -0 -0
 0 0 0
 33041.049323202002 22671.470096818859 -999196.82420595712
 29880.004494083681 20462.843963242543 -999344.01351505052
 25797.4062444259 17418.709806448223 -999515.42378281441
 22044.131796759666 14598.860087501487 -999650.40365993581
 19043.757463960908 12265.703120619351 -999743.41099534661
 16781.558641761188 10405.407401482216 -999805.03438738594
 15104.416547903895 8928.4113110828912 -999846.05818706297
 13860.944733048453 7763.6669230759471 -999873.79187926254
 12922.091983959372 6863.293480354112 -999892.95164100488
 12196.387552689566 6192.6628936355637 -999906.44515222043
 11626.787038112341 5723.6814658423109 -999916.02512093377
 11167.408598186652 5430.6335120380008 -999922.8956298877
 10770.318195369442 5296.5130036665751 -999927.97100389807
 10385.213255460314 5318.5185936754779 -999931.92803590745
 9962.8667779668649 5507.698542190943 -999935.20117172226
 9455.4014630459515 5883.7341124996528 -999937.98660520255
 8807.9039948158552 6469.2875456827023 -999940.28278986202
 7939.8646465815118 7292.9342700102716 -999941.88414083712
 6731.8909593320295 8403.9330908480606 -999942.02609587146
 5041.590762808818 9872.1805031043641 -999938.55931986868
 2719.8664609855796 11782.795699199856 -999926.88135280425
 -348.60562031056082 14224.186777468254 -999898.77036860131
 -4072.2182791451373 17146.256696660104 -999844.69940065185
 -7917.4978897564706 20120.221392427786 -999766.21763204492
 -10648.67494233131 21972.107211991217 -999701.87167306908
 0 -0 0
 0 0 0
 0 -0 -0
 0 -0 0
 0 -0 -0
 -0 -0 0
 0 -0 -0
 0 -0 0
 0 0 -0
 34438.059040714332 22002.029797416744 -999164.61645431677
 31113.323310612373 19638.59225304471 -999322.91418084071
 26872.883644940783 16370.630394545209 -999504.80268235365
 22928.084747229914 13325.142353785403 -999648.30991257878
 19688.895844091177 10835.913626675927 -999747.43328318466
 17195.933132540122 8890.3836349809881 -999812.61292430409
 15342.08740589722 7386.5471296768783 -999855.01912803878
 13983.357185886985 6220.7865640430555 -999882.87690925889
 12990.417559539521 5316.430981663395 -999901.4874542621
 12260.264132107979 4621.92855446671 -999914.15816551412
 11717.659405511315 4102.4654983764258 -999922.93014756427
 11309.67000398438 3733.235412160519 -999929.07464367594
 10994.71488666316 3495.9082711181732 -999933.44522019126
 10734.483010224854 3379.5241531509409 -999936.6728403361
 10490.866984582875 3382.1359568390658 -999939.24958783446
 10224.998977828196 3510.7404687087628 -999941.56034103537
 9894.97669472489 3779.7618649135225 -999943.89984461386
 9450.0367841450279 4210.3067751938015 -999946.48362881772
 8821.693407158562 4833.24877257565 -999949.40743606258
 7917.283975981999 5696.0602260828946 -999952.43462493969
 6621.7497652376296 6866.8460367330845 -999954.49839257915
 4804.0470762632758 8435.2181374162374 -999952.88300332578
 2337.9625718929224 10502.357883942921 -999942.11552963895
 -838.23639914562887 13126.725590746406 -999913.48947546666
 -4621.899362047433 16211.109196456518 -999857.90889751294
 -8539.9529106236587 19267.762350544228 -999777.88660196273
 -11412.906795258552 21098.489569305802 -999712.25825053104
 0 -0 0
 0 -0 0
 0 0 -0
 0 0 -0
 0 0 -0
 0 -0 0
 -0 0 -0
 36569.390312395044 21181.271856189796 -999106.61764134769
 32791.034546761963 18981.973246749196 -999281.95858076657
 28185.978048925172 15735.63271414534 -999478.83444548794
 23952.743317835138 12616.973480871964 -999633.47186242859
 20467.137503836711 10024.092619857809 -999740.27319576719
 17750.646917457911 7993.0103248534606 -999810.49520394544
 15704.421072795925 6437.2069807090256 -999855.95638824697
 14196.849919236689 5249.5433993661845 -999885.43931115861
 13101.062756869243 4338.3858633179198 -999904.76574658928
 12311.020075038337 3636.6751141592058 -999917.60329480458
 11744.311530481213 3098.7131930890882 -999926.23184074019
 11339.705578919904 2693.9487245125706 -999932.0745518934
 11052.022112321823 2401.7859796900366 -999936.04007023177
 10845.64856460095 2208.5443244561961 -999938.74524351745
 10689.221223912007 2106.6906833348908 -999940.64944075106
 10552.371918258166 2094.9946076779602 -999942.12754763581
 10403.530560951451 2178.5372135858111 -999943.50866810291
 10207.300661353756 2368.5857297438752 -999945.09890035959
 9920.4545323826987 2683.2421371776568 -999947.19100235694
 9486.869752377741 3149.8595762403379 -999950.03759535472
 8833.1765747302252 3809.0003863700294 -999953.73218347295
 7866.8324723826581 4717.9386623970131 -999957.92611570866
 6476.6637426452398 5952.1496796793144 -999961.31162208237
 4539.0117459392177 7600.1581035110976 -999960.81671692093
 1935.815436412943 9741.0646812735322 -999950.68092255003
 -1408.2554095762371 12394.480837429524 -999922.19380383403
 -5432.5196898875165 15412.161136118404 -999866.46759401471
 -9705.507303119708 18257.174546059799 -999786.21650109976
 -13055.213970798812 19713.557276445583 -999720.42944399465
 0 0 0
 0 0 0
 -0 0 0
 0 -0 0
 -0 0 -0
 39960.705109622795 19332.390849769767 -999014.21446903038
 35453.860067505273 17947.251466159694 -999210.14805251278
 30141.156627029501 15102.208358922288 -999431.55542531691
 25372.109248347289 12129.169528938955 -999604.49144590599
 21498.172649601722 9555.8132744330724 -999723.21919889026
 18491.189868879828 7494.0482614880884 -999800.93775605515
 16217.765880341056 5899.9766770127726 -999851.07608336408
 14531.288820517166 4684.5062609839342 -999883.44173023768
 13299.364562824894 3758.692085705793 -999904.49500741309
 12411.613183538959 3049.7989452786824 -999918.32195663638
 11780.743675510959 2504.2903073975199 -999927.46867385739
 11340.127510884789 2085.0632240646046 -999933.52480021818
 11039.874981841898 1767.1832945493672 -999937.49715849163
 10842.331120659532 1534.1934203547059 -999940.04325580387
 10717.546927512951 1375.7175530223892 -999941.61909037025
 10639.484462464825 1286.362139414199 -999942.57167240314
 10583.201886920298 1265.4032195241346 -999943.19568289106
 10522.608019091924 1316.7839089157615 -999943.76881933399
 10428.106571172299 1449.3858335189898 -999944.57540107961
 10263.677928359557 1677.8764254344919 -999945.91936068411
 9983.4128480609597 2024.4512470084601 -999948.11518650979
 9527.9744248704592 2521.2969342802849 -999951.42920300306
 8821.3910489581631 3212.9865226428001 -999955.92891765328
 7768.2279523396246 4157.652782393895 -999961.18352555158
 6251.8127751319143 5424.575366736065 -999965.74382281466
 4135.3247650914836 7083.8931444529935 -999966.35820761754
 1270.450110298194 9182.315542442404 -999957.0345958852
 -2467.7857653021806 11689.612638219165 -999928.62894797884
 -7069.0966006388016 14381.554292275228 -999871.59114027687
 -12088.074322254717 16605.565948343719 -999789.0445682602
 -16105.758125399747 17065.060321449146 -999724.65622861939
 0 0 0
 -0 -0 -0
 0 -0 -0
 0 0 -0
 38282.002214385539 16300.072762203765 -999134.02300912794
 33015.160133045785 14226.960243093787 -999353.58747724048
 27515.317654919876 11624.281819948712 -999553.79213252908
 23011.885832299686 9210.1023553806172 -999692.76636626944
 19550.318085429779 7201.4784882521999 -999782.93832728628
 16952.965866384784 5612.6967123446275 -999840.53457736352
 15029.816334446969 4386.6555934114422 -999877.42342432041
 13621.331603704813 3449.6263688098006 -999901.27482829907
 12601.789414276593 2733.4907016652551 -999916.85800977587
 11874.483639279151 2183.3641295228294 -999927.11212336796
 11366.173595991797 1758.4796725201038 -999933.85673604789
 11021.958106752696 1430.139757201536 -999938.23366234393
 10800.71209678181 1178.8666704167374 -999940.97570385435
 10671.03564725694 991.87508926291378 -999942.57094196277
 10607.729564118454 861.29500743022436 -999943.36551847006
 10588.885765490453 783.18752942771982 -999943.62946895103
 10593.575221004128 757.1402160167745 -999943.5998608775
 10599.872986489925 786.24528264980654 -999943.51065999037
 10582.876302690696 877.39782418820278 -999943.61486146809
 10512.414957515128 1042.0095092555423 -999944.20011715859
 10350.330406320503 1297.2039224805299 -999945.59248114261
 10047.285053367772 1667.3919373921422 -999948.13458858139
 9539.0011624034305 2185.8333642658367 -999952.11364811205
 8741.6223005508818 2895.5354279537637 -999957.5990581502
 7545.9722499789414 3848.2932771147639 -999964.12382727792
 5811.0082621427082 5099.8953523131295 -999970.11117851571
 3359.0875579822109 6698.1380982036762 -999971.92534430453
 -15.587568920352266 8656.3088261227385 -999962.53333539178
 -4486.0943988969811 10896.624957120377 -999930.56685031264
 -9937.8835409023213 13135.697251443184 -999864.336761966
 -14979.588645488771 14702.630611716699 -999779.6980220729
 -0 0 -0
 -0 -0 -0
 0 0 -0
 42429.875764818091 14522.420752619691 -998993.89634675242
 37152.464233257415 13378.92627035326 -999220.04520188097
 30779.009176427742 11118.452665012954 -999464.37285400671
 25325.841136409395 8894.4131282319686 -999639.68067791208
 21145.211833900827 6990.5047984656176 -999751.97567154747
 18045.735489635212 5450.6530390528569 -999822.30511830759
 15774.304238670524 4242.4334720597872 -999866.57764124766
 14119.44073956672 3309.288124273321 -999894.83947328792
 12921.324400662972 2592.7783037747236 -999913.15466714418
 12062.460710601008 2041.9249231079382 -999925.160991668
 11456.931733368823 1616.1819736919108 -999933.06109513389
 11041.818298065506 1285.2742100108931 -999938.21125051391
 10770.798061777332 1027.6355853159619 -999941.46522394812
 10609.318713907482 828.48488126847178 -999943.37638149713
 10530.86277973442 678.10222568567781 -999944.31900305627
 10513.985390134529 570.56478466819374 -999944.56374693231
 10539.961246699351 502.97048149075619 -999944.32656904077
 10590.872630531101 475.08038229898528 -999943.80227868503
 10647.943538405007 489.2745328702847 -999943.18934069166
 10689.867093321349 550.78942752717376 -999942.71004519716
 10690.90622887274 668.2362048239745 -999942.62734637957
 10618.551032603222 854.41618443841298 -999943.25656356732
 10430.520830253099 1127.3543623121798 -999944.96513925795
 10070.768735955733 1511.3776551674673 -999948.14633292367
 9463.9988225839261 2037.9062528573538 -999953.13873420632
 8508.1054034214194 2745.4405972600184 -999960.03655064688
 7064.2651807655866 3677.8931518336944 -999968.28412676125
 4946.1097522169557 4879.854539306024 -999975.86121765675
 1915.8341644779593 6385.952557190747 -999977.77434770588
 -2283.4200341557535 8198.1854173500869 -999963.78721872251
 -7757.3289043310451 10232.058064764493 -999917.56101992191
 -13854.564121524591 12126.982824856588 -999830.47930165031
 -18312.714062845251 12605.603107978397 -999752.84109320573
 -0 -0 0
 0 0 -0
 40970.669238429284 12027.448110883372 -999087.95646534325
 35066.943223434289 10579.218370807712 -999328.96967496513
 28690.778082180466 8615.7958248311443 -999551.20294827526
 23535.251210208153 6819.9837827434303 -999699.7448092479
 19691.00904826654 5342.3368895900721 -999791.84013434476
 16896.162848802524 4171.1134937954321 -999848.54927794368
 14879.062823654347 3258.7133043895469 -999883.99040943221
 13427.198137286874 2553.657739908801 -999906.59022847202
 12386.545814184619 2009.7498250356373 -999921.26409454562
 11647.845741920588 1588.8489535505862 -999930.89923682983
 11133.664225319735 1261.1970952261413 -999937.22348095663
 10788.683444108119 1004.6068377074766 -999941.29581423139
 10572.820931681017 803.17340120292567 -999943.78360487567
 10456.373351141825 645.90999340654434 -999945.1220225147
 10416.505741536408 525.56405733515271 -999945.60861606791
 10434.6466142218 437.72397248108422 -999945.46178667166
 10494.484026253274 380.24968689832883 -999944.8590873389
 10580.357649387839 352.983694991052 -999943.96414725285
 10675.835416455977 357.70681745873094 -999942.9476645122
 10762.284610934665 398.29847007662659 -999942.0056124666
 10817.214660410747 481.10389156181412 -999941.37648465962
 10812.171232508268 615.48944116731741 -999941.35734351282
 10709.876195788785 814.56606091370998 -999942.31585327117
 10460.212764040229 1095.9998493782596 -999944.6898370235
 9994.4749016290207 1482.8096260867485 -999948.95457070903
 9217.2174786810992 2003.9767344854124 -999955.51250003011
 7995.2456084907781 2694.623001528957 -999964.40689383517
 6144.6926196856821 3595.203882778796 -999974.65830972465
 3422.2354685414925 4748.0429160816948 -999982.87204974901
 -457.04416188861057 6184.9169688755137 -999980.76877144095
 -5703.1529937422165 7881.1525547149258 -999952.67962056072
 -12033.129615498896 9599.077201142487 -999881.52373595897
 -17492.317812447869 10615.805821256441 -999790.63982631569
 0 0 0
 -0 -0 0
 39173.509152403858 10027.427382681744 -999182.10896751529
 33110.555927988709 8406.9842301836179 -999416.33651961724
 26953.625486987123 6699.7533317765037 -999614.23328121961
 22121.630400674811 5263.5113158294198 -999741.43102956575
 18575.585942808368 4126.0272067542537 -999818.94536279445
 16027.014178897376 3241.9952429045297 -999866.30320426053
 14205.566396983006 2559.0175513469876 -999895.82122964843
 12905.913672582974 2031.727555948255 -999914.65109548916
 11982.029618371273 1623.4992295754223 -999926.89493606286
 11332.211154905535 1305.7043943256458 -999934.93594652193
 10885.716473425631 1056.5699380795584 -999940.19062983268
 10592.857661906939 860.00110695804608 -999943.52428757248
 10418.088695940352 704.44936703556846 -999945.48210340587
 10335.238094176599 581.90205161758468 -999946.42068639805
 10324.192966518245 487.04422334524969 -999946.58548720216
 10368.523129744684 416.63671031534619 -999946.15862153284
 10453.719116514194 369.10322212000398 -999945.29026314442
 10565.788021863393 344.31896651146371 -999944.12122274411
 10690.020840743304 343.5647263764302 -999942.80107299297
 10809.729550401376 369.63930178116811 -999941.5048460752
 10904.766411971012 427.11000672784098 -999940.45005017309
 10949.57490863058 522.70959378011162 -999939.9149868961
 10910.474661930022 665.8636536312174 -999940.25729952822
 10741.7433018717 869.35581651151153 -999941.92789946601
 10379.941178867615 1150.1227267564068 -999945.46553241403
 9735.8087540126326 1530.2142943301703 -999951.43505678256
 8683.2685243455217 2037.9445074176451 -999960.22302385559
 7046.1509961550682 2709.1698070180169 -999971.50567158475
 4587.1538386381872 3587.9153517980626 -999983.04229776259
 1015.4455165192876 4722.7678777006431 -999988.33209891804
 -3933.8398090624887 6146.2080585414187 -999973.37416096136
 -10167.063682573205 7799.615084251679 -999917.89503969369
 -15988.463440099382 9294.0763309548784 -999828.97996706376
 -0 0 -0
 44769.585211432823 9682.0656445509812 -998950.42011345632
 38815.380907237632 8433.9425427635106 -999210.80599551729
 31694.864596319538 6675.0080008875429 -999475.30225934484
 25625.387108525036 5207.2432949593185 -999658.05361273699
 21048.582999166421 4077.7294280306573 -999770.13822000043
 17739.803883583834 3218.5015340136683 -999837.45709292544
 15381.757200881502 2563.8814250988876 -999878.40663625242
 13707.546647838399 2062.6796088387591 -999903.91964314668
 12520.249760463774 1676.5615037908385 -999920.21306075214
 11681.641971308125 1376.9656751150555 -999930.81921020115
 11096.469999345956 1142.6258923497364 -999937.77944411302
 10699.20313749374 957.80992947090999 -999942.30316171853
 10444.318857500917 811.03678953045414 -999945.12770598009
 10299.545404130335 694.09885709236789 -999946.71737610339
 10241.253906197604 601.28862615695391 -999947.37620057643
 10251.297552109529 528.80488802633317 -999947.31424404995
 10314.808471048844 474.31412420639754 -999946.68845509808
 10418.589001090666 436.6662753478775 -999945.6296848295
 10549.859504593524 415.73904256261892 -999944.262259393
 10695.149902786194 412.40713923806373 -999942.7202039666
 10839.166556136606 428.61362221861805 -999941.16264844872
 10963.427377327724 467.55075681417088 -999939.79051562503
 11044.445830350507 533.94096214410422 -999938.86569297302
 11051.146068637356 634.441291497561 -999938.7329505831
 10941.112226011168 778.18479060815991 -999939.84143631847
 10655.126129800437 977.52261695364359 -999942.7547298352
 10109.392219833826 1249.0483399861403 -999948.11868775962
 9184.977222414007 1615.0578912488879 -999956.51294515375
 7714.9077821313258 2105.5773643790876 -999968.02285966917
 5472.366309747782 2760.8938038808942 -999981.21515975264
 2172.4117327993085 3633.5521179342304 -999991.03892298439
 -2473.9908629827032 4785.2282715353722 -999985.49037453474
 -8536.433966211358 6255.8685296608501 -999943.99513376749
 -15178.818096020639 7872.20668575123 -999853.80523509765
 -19912.956367028448 8551.9361111391481 -999765.14169952716
 44054.779102617475 7083.1468932029538 -999004.00673286023
 37607.428771088016 6208.1790838539746 -999273.30586466228
 30453.562607688033 4994.4386420929977 -999523.70462493296
 24605.009217234641 3943.3666605639432 -999689.47347703937
 20256.44791120222 3132.1973313394624 -999789.91076020501
 17133.821506823031 2520.6832476966083 -999850.02791245526
 14918.413383797899 2059.0175069118764 -999886.5942640776
 13351.53587916807 1707.5727917955542 -999909.4062387991
 12244.714754775059 1437.3440721567915 -999923.99761311489
 11466.52131904883 1227.4133325716721 -999933.50396181364
 10926.88101674692 1062.6683072614717 -999939.73518773355
 10564.204166176407 932.17270409290586 -999943.76274087769
 10335.983694177496 828.05107315540681 -999946.23944114812
 10212.266914673932 744.70080985499374 -999947.57613845298
 10171.204965125371 678.22423471768741 -999948.04195090313
 10196.033125933222 626.00831324111493 -999947.82314983138
 10272.980869992047 586.43118328699984 -999947.05957991199
 10389.778991912906 558.66642373596903 -999945.86872706597
 10534.498956800395 542.58356759495962 -999944.36341968609
 10694.541580505962 538.72299967540312 -999942.66663539864
 10855.583192980592 548.3507990756475 -999940.92606760596
 11000.306327394061 573.58002540454709 -999939.33029292233
 11106.676021348731 617.57658571589263 -999938.12825940258
 11145.483049657634 684.85307803450678 -999937.65264832962
 11076.751419393604 781.69457146042441 -999938.34536514792
 10844.520904496556 916.7585866051038 -999940.77620629431
 10369.414347365977 1101.9445885867772 -999945.62900400558
 9538.5392603356067 1353.6179769292312 -999953.59091667435
 8192.9825678602519 1694.2286690028852 -999965.00170048967
 6115.6480065070309 2153.9741759967769 -999978.97940142185
 3029.3754296874013 2770.8065355773256 -999991.57272231451
 -1364.7831320407233 3582.1283504283333 -999992.65283475153
 -7227.3439136739489 4584.2791018390326 -999963.37427181297
 -14102.267001664919 5595.2384719366155 -999884.90306227538
 -19770.593416117877 6076.9425106521203 -999786.07432075019
 43342.200475308469 4599.4512696044967 -999049.69781586784
 36691.548512625013 4155.9365086791613 -999317.99666546669
 29583.921632916095 3486.5182419742287 -999556.2194150791
 23901.527531079511 2856.299028990898 -999710.23728755442
 19716.83584603525 2349.3505387179762 -999802.84403289563
 16725.247587837443 1961.9062919160156 -999858.19845457433
 14608.453390806293 1668.8783117921844 -999891.89812434674
 13114.56596925271 1446.1368243988468 -999912.95463541395
 12061.71034783184 1275.0545144391363 -999926.44198434427
 11323.589877017792 1142.1106359445575 -999935.233850469
 10813.912419647244 1037.6352606563846 -999940.98956450715
 10473.86209461378 954.72430972216102 -999944.69182766066
 10262.995049293333 888.45305985899029 -999946.93938417488
 10152.90820660085 835.33338316503045 -999948.10899020522
 10122.934711277683 792.92940806687193 -999948.44739905722
 10157.220533391855 759.59135272375477 -999948.12560052972
 10242.724912180731 734.26768986893399 -999947.2723285628
 10367.792144919398 716.39043785208662 -999945.99637719453
 10521.062042202917 705.81168785956879 -999944.40299616917
 10690.510186618367 702.79653131019722 -999942.60788756527
 10862.458703667202 708.05642973590795 -999940.7510682838
 11020.360862571115 722.83550558538286 -999939.01271792105
 11143.15631811568 749.04262074345127 -999937.63255636231
 11202.901170407486 789.45510082083229 -999936.93389433797
 11161.312476919991 848.00546699395341 -999937.35103281378
 10964.72897784831 930.20046721298922 -999939.45288979029
 10536.926281548478 1043.701918652263 -999943.94036407967
 9769.2542648713807 1199.0913314360398 -999951.56075236341
 8508.1190872568404 1410.6571852557415 -999962.81028641388
 6541.7099692022812 1696.5462502733608 -999977.16361999966
 3593.5204535014395 2076.1337103069177 -999991.38810270117
 -653.96423337262343 2558.9324785693921 -999996.51209159312
 -6436.5501703083874 3113.4847089119739 -999974.43819073332
 -13473.566348448541 3611.2121883704854 -999902.70634516468
 -19568.326205067493 3832.8474343241796 -999801.17517938395
 42905.907740850591 2653.6521462785504 -999075.59334177524
 36183.40422018434 2482.4829133227054 -999342.08284131787
 29099.731921282641 2199.388977535777 -999574.09344692156
 23502.704509278716 1914.129287572016 -999721.94083646103
 19409.229170938419 1675.3091204242232 -999810.21957286517
 16493.159389943241 1489.5217690162331 -999862.86910667783
 14433.617952271947 1348.2948634764987 -999894.92086607229
 12981.876725048392 1240.9914606214124 -999914.96179269673
 11959.850798753047 1158.752007204338 -999927.80702541606
 11244.341071925479 1095.0029652596622 -999936.18084473966
 10751.34546687337 1045.0460090362219 -999941.65652276506
 10423.710340185773 1005.5503395984761 -999945.16606224887
 10222.202596511237 974.15525608657583 -999947.27740797063
 10119.31963394486 949.18377277574098 -999948.34787618485
 10095.070862056064 929.449023655671 -999948.61151401326
 10134.127104417776 914.11739185157899 -999948.23058857652
 10223.864377173672 902.62267825125321 -999947.32754755521
 10352.984668234267 894.60991788828244 -999946.0062331137
 10510.455436528546 889.91447393333544 -999944.36764189345
 10684.590798946043 888.56043560732599 -999942.52333812241
 10862.087991769185 890.7885108356129 -999940.60900649894
 11026.855222131144 897.1007971806481 -999938.7999643127
 11158.403341752679 908.33792672166533 -999937.33051480458
 11229.540714159728 925.78273851604024 -999936.51815586258
 11202.990987808575 951.3155141910961 -999936.79199823388
 11026.466455425878 987.62453386808068 -999938.71893995954
 10625.593771380556 1038.4964348503447 -999943.00751700869
 9894.1016989811833 1109.1478688039886 -999950.43704304425
 8681.0095536918179 1206.4521162215513 -999961.59153560491
 6776.0488869743931 1338.5272896282418 -999976.14646859257
 3899.3261231961183 1512.357823964579 -999991.25397655228
 -283.72002661950853 1726.8030746558761 -999998.46882587159
 -6051.9046202022928 1958.3983682243843 -999979.76935851015
 -13182.610784750796 2146.7459940008284 -999910.80114905001
 -19441.088237584136 2217.5989593598051 -999808.54484395846
 42784.274424601594 1020.6565752649409 -999083.81236116309
 36039.224261369767 1039.0757876110295 -999349.83596143452
 28957.402523165954 1049.9203329055972 -999580.09509313747
 23382.759492427347 1054.7244467089115 -999726.02952752064
 19316.638932652157 1056.804572374255 -999812.85780111933
 16424.505908411051 1058.1290035211803 -999864.5488108258