# OOMMF OVF 2.0
#
# Segment count: 1
#
# Begin: Segment
# Begin: Header
#
# Title: Oxs_TimeDriver::Magnetization
# Desc: Oxs vector field output
# Desc:  MIF source file: /mnt/gpfs/work/plgrid/groups/plggspinsym/MF/switching-obrazki/p-ap/Anisotropy.mif
# Desc:  Iteration: 47500, State id: 332650
# Desc:  Stage: 0, Stage iteration: 47500
# Desc:  Stage simulation time: 6.99246e-09 s
# Desc:  Total simulation time: 6.99246e-09 s
# meshunit: m
# meshtype: rectangular
# xbase: 1.0000000000000001e-09
# ybase: 1.0000000000000001e-09
# zbase: 3.4999999999999998e-10
# xnodes: 35
# ynodes: 35
# znodes: 5
# xstepsize: 2.0000000000000001e-09
# ystepsize: 2.0000000000000001e-09
# zstepsize: 6.9999999999999996e-10
# xmin: 0
# ymin: 0
# zmin: 0
# xmax: 7.0000000000000005e-08
# ymax: 7.0000000000000005e-08
# zmax: 3.4999999999999999e-09
# valuedim: 3
# valuelabels: Magnetization_x Magnetization_y Magnetization_z
# valueunits: A/m A/m A/m
#
# End: Header
#
# Begin: Data Text
 -0 0 -0
 0 0 -0
 -0 -0 0
 -0 0 0
 0 0 0
 -0 0 -0
 0 0 0
 0 -0 0
 -0 0 0
 0 0 0
 0 0 0
 -0 -0 0
 0 0 0
 16982.571997674848 30711.109028394003 -999384.02029979951
 14673.363873533788 30099.963703021494 -999439.18503214163
 12684.425194560903 29430.294077842664 -999486.34965564962
 11203.842355534023 28924.272567744054 -999518.81441666663
 9920.8639760683036 28636.523548625999 -999540.65749073832
 8503.6426510208803 28592.22526124322 -999554.98734000302
 6638.1651655462065 28813.905115311427 -999562.7512243744
 4118.6434877364482 29279.118765451789 -999562.78941352142
 1478.7014879339181 29766.355250787765 -999555.79010728223
 0 0 0
 -0 0 -0
 -0 0 -0
 -0 0 0
 0 -0 0
 -0 0 0
 -0 -0 0
 0 0 0
 0 -0 0
 0 -0 -0
 0 -0 0
 -0 -0 0
 0 0 -0
 -0 -0 -0
 -0 -0 -0
 -0 -0 -0
 -0 0 -0
 0 0 -0
 0 0 -0
 -0 -0 0
 0 0 0
 0 0 -0
 0 0 0
 21712.651507281174 29226.51649631383 -999336.96594192588
 19743.877603923294 27612.823504819073 -999423.68957077118
 18203.512305602504 25464.206814493547 -999509.98309724161
 16408.747897672361 24823.199860508685 -999557.1828270338
 14234.598968832137 23712.989280294765 -999617.46199813322
 12491.973538619406 22895.110788135953 -999659.82438983175
 11177.61260200681 22375.411197867019 -999687.15203819948
 10031.515905175473 22124.231055242908 -999704.90000242484
 8783.4925801917288 22157.758769152013 -999715.90163627069
 7193.949288978456 22542.108044428383 -999720.01103235944
 5142.2200837574983 23379.572536119762 -999713.43552071904
 2992.0861664328449 24638.033528429918 -999691.95991776627
 1828.3677592345937 25221.629770915941 -999680.21209936705
 54.979909795492773 26661.661439176718 -999644.51320782641
 -2447.376210146972 27684.981334755666 -999613.70146581135
 -0 0 -0
 0 -0 0
 -0 0 -0
 0 -0 -0
 -0 0 0
 -0 0 0
 -0 0 -0
 -0 0 0
 -0 0 -0
 -0 0 0
 0 -0 -0
 -0 0 -0
 -0 0 0
 -0 0 0
 -0 -0 0
 0 0 -0
 0 -0 -0
 -0 -0 0
 26228.951754038837 27210.528309805806 -999285.55940681219
 23667.050100866571 25228.555319510862 -999401.51627662324
 20946.851511734254 23825.153582555675 -999496.66906324064
 18485.693647134005 21633.360091800841 -999595.05644111836
 16647.999586418024 19464.009568901361 -999671.94441040128
 14980.400510273626 17859.689545972637 -999728.27262705402
 13370.223060186801 16618.896424081206 -999772.49883009202
 12057.587284196208 15799.043697698391 -999802.48289705813
 11025.284413406571 15315.94477371524 -999821.91661279963
 10113.958411542248 15115.42887552341 -999834.60214935488
 9145.0114180005748 15204.848306375277 -999842.57828627457
 7970.331536080148 15646.25103831633 -999845.82243646495
 6534.5511747901928 16530.108559263539 -999842.01509636664
 4978.1128113118566 17861.218697770379 -999828.08285198116
 3486.2444763252765 19348.873434114328 -999806.71491857979
 1453.4517792610818 21160.890138728344 -999775.02679676004
 -1314.8345734596653 23091.404820560983 -999732.49333682121
 -4052.422840849827 24185.710434732842 -999699.26942050259
 -6979.5748836786061 25404.305814369152 -999652.89314868336
 -0 0 -0
 -0 -0 -0
 0 0 -0
 -0 0 0
 -0 0 -0
 0 0 -0
 0 -0 -0
 -0 -0 -0
 -0 -0 0
 0 0 0
 0 0 0
 0 0 -0
 -0 0 0
 0 0 0
 -0 -0 -0
 28406.469523217776 23498.97344972974 -999320.20430692553
 25170.246582491578 22280.505782908913 -999434.85918244522
 21746.026912582773 19739.96960400388 -999568.62891626917
 18916.833388770461 17372.388098078638 -999670.122363528
 16681.462539108939 15193.952316786414 -999745.40390068898
 15006.098408348547 13333.021009149212 -999798.50348024047
 13652.837903399166 11886.696270692502 -999836.13980939484
 12504.140200008576 10823.309787748804 -999863.24187015556
 11577.176470503557 10116.897512523719 -999881.80169942684
 10833.490076653252 9705.5225133534714 -999894.21356736613
 10175.759334765489 9549.0337170170642 -999902.63019807683
 9493.3059145185762 9649.0933962195577 -999908.38187278155
 8694.0071647759869 10043.173486365744 -999911.770560654
 7730.2679428556012 10780.4164015896 -999912.00891865499
 6603.9629073654714 11870.009367772023 -999907.7410199038
 5265.4081289861524 13252.555506279174 -999898.31745522423
 3442.7990304420568 14980.20960216023 -999881.86324940959
 968.32263350322091 17052.21109844595 -999854.13158516854
 -2110.48124454036 19251.862562892467 -999812.43823868083
 -5840.8557272988028 21536.839408798725 -999750.9934742013
 -8996.3110757513969 22634.571979550059 -999703.32726180891
 -0 -0 -0
 0 -0 0
 -0 0 -0
 -0 -0 -0
 0 -0 -0
 0 -0 -0
 0 0 -0
 0 -0 -0
 -0 0 -0
 0 0 -0
 -0 0 0
 -0 0 0
 -0 0 -0
 29729.038627685368 21258.328581561625 -999331.91069243453
 26538.99263103303 19392.436256743436 -999459.66166031826
 22659.901274003929 16699.850745922526 -999603.74342001963
 19363.520423522397 14076.213100676792 -999713.41608560609
 16854.227515473445 11856.062104552191 -999787.66185937182
 14990.228658837699 10014.135750185442 -999837.49186051858
 13621.271966696864 8524.9899149928442 -999870.8844130619
 12584.529790804463 7373.137763321316 -999893.62756718649
 11775.004925288264 6528.3957928409327 -999909.36054593523
 11146.178977741643 5958.179107375292 -999920.1282082086
 10649.266580186644 5623.5704399617589 -999927.4816589508
 10217.759890859843 5499.4007578799528 -999932.67472071189
 9779.5734268783199 5584.4325485342151 -999936.58501761989
 9270.3719989478977 5898.0215582260253 -999939.63495038019
 8639.8687299518424 6467.044053592098 -999941.76330901287
 7840.5176104993316 7308.6647681699342 -999942.55320138566
 6784.6882886295616 8433.0056862046968 -999941.42449441634
 5309.1731606778494 9889.0588390770245 -999937.00761379325
 3252.9320227649496 11730.31957307893 -999925.90627304406
 486.08007730941409 13978.828223388164 -999902.17325879401
 -3067.3800362141806 16661.012015335116 -999856.49063169991
 -6936.638796478851 19385.792776323826 -999788.01457140921
 -9752.4636023013645 21070.364984778989 -999730.42825208337
 0 -0 -0
 -0 0 -0
 0 0 0
 0 0 -0
 0 -0 0
 -0 0 0
 -0 0 0
 0 -0 0
 -0 -0 -0
 -0 -0 -0
 0 0 0
 30838.176568798779 20085.513874934219 -999322.56003669382
 27614.742261920401 17775.147235928376 -999460.58959348092
 23585.33826807042 14689.199870590945 -999613.90507832693
 19976.052240892677 11866.077630012243 -999730.04033016227
 17155.944471160521 9533.6885118480859 -999807.37262367771
 15079.766953597051 7671.4853643438391 -999856.86422654008
 13584.437410298129 6191.5958677998306 -999888.55739070009
 12516.957793109246 5026.7438440290998 -999909.02466871042
 11749.735503656586 4132.5953116161227 -999922.42967721471
 11192.965467869322 3474.9284710049888 -999931.31883952743
 10788.791102675272 3024.9376281095256 -999937.22389902489
 10488.620792929703 2757.2535826287658 -999941.19146404986
 10241.981596262684 2656.094912149274 -999944.02191962709
 9997.2417795385609 2719.3883162903053 -999946.32860168384
 9704.7624828412991 2957.3716524993397 -999948.53444467869
 9316.1412971737591 3387.4366239951542 -999950.86618515884
 8775.0371176389108 4029.9196821688515 -999953.37814867101
 7999.5327616709192 4913.0509009166726 -999955.93373230193
 6871.5080535718753 6087.5887246064776 -999957.86093244457
 5253.2602649076744 7623.7646253038329 -999957.13981626602
 3001.1802232177961 9606.1494269755858 -999949.35612282623
 4.8251555025293147 12122.529932519157 -999926.51942267886
 -3648.0003208831472 15120.423875852302 -999879.02512027603
 -7449.4711895188357 18177.562315557596 -999807.02218341152
 -10186.37507238125 20118.197125010796 -999745.71562338981
 0 -0 0
 0 0 0
 0 -0 -0
 0 -0 0
 0 -0 -0
 -0 -0 0
 0 -0 -0
 0 -0 0
 0 0 -0
 32204.622922205876 19389.282177907287 -999293.20922293083
 28768.715267599189 16898.466316896625 -999443.24644173181
 24532.005783970115 13580.637818781071 -999606.79617970297
 20692.577677396028 10541.037985648562 -999730.31550876261
 17613.440528873471 8070.8208367234693 -999812.29666560784
 15302.11399364006 6136.9406908407582 -999864.08239634382
 13634.576480079171 4635.0206316868243 -999896.30207734671
 12460.732758247199 3465.7870234814977 -999916.35573153594
 11650.082966486967 2557.9304323905108 -999928.86374920537
 11099.903875459811 1864.1785621894471 -999936.65647992108
 10734.929223771 1352.0457652253185 -999941.46492022683
 10500.919725817903 997.78039430781769 -999944.36601202819
 10353.916441939298 783.76236682195918 -999946.0896122678
 10253.046908619741 699.60564776702006 -999947.19139613956
 10158.115160355321 743.42296228901728 -999948.1286640265
 10028.743038080996 921.40650184750609 -999949.28637563146
 9821.8537548225995 1246.4122829297203 -999950.9876215132
 9485.7610911454794 1737.8559929826267 -999953.49901536386
 8951.8762095049751 2425.4744574397964 -999956.98956804443
 8129.275828909238 3355.9802300988945 -999961.32538773341
 6906.7681675832109 4596.0319241579682 -999965.58592985163
 5158.26426093797 6232.695311585243 -999967.27237393474
 2761.5155734865834 8363.5873869078932 -999961.21146660426
 -347.37158147548087 11043.911864861213 -999938.95380853396
 -4081.209428195536 14180.09308133456 -999891.1284183932
 -7995.1717107575005 17299.88338538674 -999818.37913901533
 -10924.16292468465 19208.512085463441 -999755.81805151666
 0 -0 0
 0 -0 0
 0 0 -0
 0 0 -0
 0 0 -0
 0 -0 0
 -0 0 -0
 34363.41415031955 18640.582833831802 -999235.55002789455
 30423.636339921348 16268.260812410323 -999404.69582746888
 25771.142231703485 12940.42583060058 -999584.1103215859
 21598.343536031603 9811.6070796841504 -999718.58236356347
 18237.78045438886 7234.7117412581656 -999807.50262744026
 15680.23559661911 5219.2578942112104 -999863.43545439653
 13809.110861961917 3669.0737460892906 -999897.91796715313
 12483.772899105266 2477.4891619932878 -999919.00545076956
 11573.481968938309 1557.4115667080932 -999931.81216737302
 10970.656385544393 846.90739897318349 -999939.46189073252
 10591.862172283254 304.46781234565168 -999943.85830159229
 10374.424036068649 -97.668826157464679 -999946.17944503401
 10270.933806225501 -378.47405955300547 -999947.18094314099
 10242.929152732479 -550.74123277550018 -999947.38815923058
 10256.047481783316 -621.64166389772504 -999947.21213256696
 10277.215533482979 -592.59063147047982 -999947.01243477
 10272.678475034914 -459.30038128472188 -999947.1291623913
 10205.449926231238 -211.80351895075754 -999947.90060836298
 10031.426892182217 166.46047113673319 -999949.67011616065
 9694.6574534316278 701.28144869221182 -999952.75979477656
 9123.3904322778471 1431.487873955796 -999957.35638550448
 8228.1847528969665 2411.9721506451715 -999963.23900732305
 6901.7628665032598 3714.8295410431401 -999969.28238362179
 5023.5558810057755 5424.3016270365233 -999972.67004562158
 2474.7864872804212 7615.5420621725034 -999967.93896151567
 -828.30919393596946 10308.188488299524 -999946.52614725789
 -4844.0082092629218 13362.912382232269 -999898.97897594294
 -9167.9300340269947 16262.515105707438 -999825.72464471438
 -12634.007277815403 17795.939471192676 -999761.81483313395
 0 0 0
 0 0 0
 -0 0 0
 0 -0 0
 -0 0 -0
 37822.101316956403 16993.271739508898 -999139.98887421016
 33092.319774271287 15369.38218518151 -999334.11853253713
 27680.409348467041 12384.63472879732 -999540.10212744132
 22929.265508255117 9361.493625894971 -999693.25856501807
 19144.141069983139 6780.742470631435 -999793.74042561371
 16266.433139215531 4723.1080912068574 -999856.53741068591
 14146.184077448017 3129.7495010336975 -999895.03956370743
 12628.047623020919 1907.149633310433 -999918.44427108497
 11575.001547748519 967.77098307888491 -999932.53910376073
 10874.025484143953 242.7371607566017 -999940.84657465655
 10435.845292698205 -317.24644890464282 -999945.49475844787
 10191.711147534385 -745.68006500690717 -999947.78512936656
 10089.099856150062 -1064.8958110801727 -999948.53670626669
 10087.157986385515 -1289.7020349385425 -999948.29161933088
 10152.368813787511 -1429.5918717562872 -999947.44145607413
 10255.101174983434 -1489.6844520390196 -999946.30542850867
 10367.137187300688 -1470.9735632466763 -999945.17784892395
 10459.683458639462 -1370.2853111600382 -999944.35712199053
 10501.186078862009 -1179.9297703731688 -999944.16486955632
 10454.572783427893 -886.73165810919022 -999944.95629253646
 10273.972389426732 -470.23084343079472 -999947.11078851321
 9901.3178058129633 99.682696204898761 -999950.97578284715
 9263.0344088512684 864.91992465334249 -999956.72311708773
 8266.6748320781735 1880.1899617685199 -999964.0628407246
 6798.0255019245751 3210.7240927973894 -999971.73865068564
 4720.3925437222406 4922.8640779426914 -999976.74138126988
 1880.9541666003033 7061.8469719818786 -999973.29580782691
 -1856.711532699728 9601.5070365966858 -999952.18069911271
 -6502.1734913237633 12330.856351799084 -999902.8311398665
 -11632.62751497972 14619.809517283828 -999825.45634064346
 -15813.147271734142 15176.42739666403 -999759.78135992063
 0 0 0
 -0 -0 -0
 0 -0 -0
 0 0 -0
 35867.718543816562 13885.9261748148 -999260.07016228209
 30482.199507799312 11656.274142765209 -999467.34153061511
 24978.57098053916 8958.0554393277635 -999647.8501124864
 20541.130352595308 6500.4110204406988 -999767.87636951148
 17184.837607241818 4472.1834186712786 -999842.3280357169
 14717.743408578028 2869.6641467323238 -999887.57020809315
 12943.503571616509 1627.5102429997589 -999914.90484225715
 11699.559461919891 670.02493644007507 -999931.33332993486
 10858.248538622844 -69.401812017469268 -999941.04507318931
 10320.975996877472 -642.63167433688454 -999946.53081002412
 10012.180439488422 -1087.1350971610491 -999949.28590410424
 9874.0078974004336 -1428.7244557036834 -999950.23011871532
 9861.7474924861781 -1684.6882721604745 -999949.95262854011
 9939.9268211057533 -1866.363995233057 -999948.85596225807
 10079.04728424331 -1980.837763994919 -999947.24315215496
 10252.989410309283 -2031.8398879471022 -999945.37242532475
 10437.011512984147 -2020.0727779826614 -999943.49245177314
 10606.028368452919 -1943.1775723478236 -999941.86642182851
 10732.823341746292 -1795.3683511911076 -999940.78982487682
 10785.903203950833 -1566.6633530480271 -999940.60316501476
 10726.883260272083 -1241.6677917815518 -999941.6944185372
 10507.313442345918 -798.06160741926487 -999944.47818961169
 10064.761992495383 -205.14364973332331 -999949.32795723074
 9317.7476695959376 577.00904827606996 -999956.42236995697
 8159.2397605417691 1596.7587314801535 -999965.4379867753
 6449.0128810463493 2906.7420931306938 -999974.98022863758
 4007.610585195725 4553.2279135960771 -999981.603417265
 623.57393693018366 6551.7722171104697 -999978.34248365613
 -3886.0306034094124 8833.6124651442442 -999953.43194419087
 -9416.7849671499444 11133.032921919485 -999893.68421789806
 -14565.06530997861 12790.511055270699 -999812.11319900537
 -0 0 -0
 -0 -0 -0
 0 0 -0
 40105.629708540248 12269.766318803084 -999120.10854559601
 34576.313899345412 10948.2543998945 -999342.09069904021
 28129.677586693164 8576.5231199795981 -999567.48871201323
 22723.449612474287 6285.4768004675016 -999722.03017593827
 18636.046243775701 4339.1032736161842 -999816.91822212189
 15651.694262033083 2767.8288606552806 -999873.67381591047
 13511.725555051491 1530.8908572180703 -999907.54054847907
 12004.428064285335 568.03666641930931 -999927.78291294375
 10970.473998172172 -179.59857447346798 -999939.80641066958
 10292.103319254707 -761.50418661704532 -999946.74494226929
 9881.9819148825663 -1215.8617321431809 -999950.43282838864
 9674.6216128391206 -1570.426616330137 -999951.96657484048
 9620.1327822181138 -1844.5192174032022 -999952.02424621815
 9679.6305314397141 -2051.1684075165094 -999951.04753229721
 9821.7888095108228 -2198.8984206509299 -999949.34737231431
 10020.198893320348 -2292.9812504802126 -999947.16752992664
 10251.346975786488 -2336.1601152099511 -999944.72459286381
 10493.004712458471 -2328.9578027801003 -999942.23473541578
 10722.817447834183 -2269.6653350705124 -999939.93309860735
 10916.81954919714 -2154.0613199153518 -999938.08961893246
 11047.662665320307 -1974.8523255943571 -999937.02257088432
 11082.32835578258 -1720.8511906862286 -999937.10835701774
 10979.097518024875 -1375.9623259027946 -999938.781198813
 10683.388215416566 -918.14265915824933 -999942.50946256728
 10121.94336459877 -318.58665088969644 -999948.72106777038
 9194.7599316956002 458.43341936249738 -999957.62221636099
 7764.5358427303845 1454.3674577775948 -999968.79791243724
 5645.1672204006691 2712.5192985508097 -999980.38697071886
 2597.3529774488406 4268.694932888664 -999987.51592261426
 -1639.125624189639 6129.8683665006583 -999979.86878786574
 -7175.2190824983199 8219.8842465201833 -999940.47309531958
 -13371.543041016668 10182.914374389551 -999858.7450692954
 -17974.634206288392 10732.643914213299 -999780.83742376289
 -0 -0 0
 0 0 -0
 38391.579621547673 9751.3137770974445 -999215.19128453138
 32327.148285017785 8164.0966104789059 -999443.99693544256
 25947.67626156726 6112.9002489577706 -999644.61212331417
 20870.991583666917 4262.2239756018189 -999773.09183489054
 17134.342631485659 2742.0868659527991 -999849.43629638862
 14460.03219002862 1532.2883723498837 -999894.27419173066
 12575.921500506876 581.8782509835363 -999920.75066782872
 11272.551095452838 -161.46647496103691 -999936.4497408712
 10398.322634004546 -743.28081085209783 -999945.65973358555
 9844.6400755914401 -1200.1630948677462 -999950.82012583409
 9532.8837562230146 -1559.9374738033287 -999953.34427280573
 9404.947947798737 -1842.8271840096934 -999954.074416455
 9416.7068685685917 -2062.9927595206732 -999953.53376675735
 9533.5358702491503 -2230.0352296583314 -999952.06816961232
 9727.1821610511088 -2350.2451806462586 -999949.92788378976
 9973.5371297906659 -2427.4994629097137 -999947.31651396456
 10250.984352402924 -2463.8134172967566 -999944.42192716454
 10539.104738739061 -2459.5918029601085 -999941.43712492916
 10817.504700784208 -2413.6408515416588 -999938.57607849513
 11064.572979556973 -2322.9686838637431 -999936.08747823187
 11255.932146670155 -2182.3960176607143 -999934.26840924495
 11362.36678598555 -1983.983280512522 -999933.47800309386
 11346.907059031653 -1716.3118757679902 -999934.1488186802
 11160.66333082412 -1363.6643150186835 -999936.78800894809
 10736.819745546618 -905.18212500056052 -999941.9489885763
 9982.1476631888563 -314.10021923693489 -999950.12779092253
 8765.6171630553326 442.7444543107307 -999961.48322477832
 6905.1357229174891 1404.6326635292069 -999975.17274566821
 4158.4819631951095 2614.1743334146208 -999987.93648739404
 240.64629572559184 4105.4947150000808 -999991.54346549627
 -5061.7731882607632 5858.437293573561 -999970.02813317755
 -11476.986333002922 7642.3474168300636 -999904.93213638687
 -17048.493146553315 8740.1013358823893 -999816.46291210386
 0 0 0
 -0 -0 0
 36375.375066433204 7690.1389576083511 -999308.60791428643
 30236.007767705902 5988.9426878383838 -999524.84531388863
 24130.766863693716 4226.6393497064682 -999699.87576791144
 19398.476549262428 2748.6350624327442 -999808.05363472702
 15966.824987200998 1571.7091698168094 -999871.28683151677
 13540.991035390054 647.16308351268685 -999908.10714871332
 11853.847393939315 -77.52844287688319 -999929.73767725378
 10704.82702355589 -646.76072381457845 -999942.49253592663
 9951.1989046654144 -1095.7507845284556 -999949.88522954378
 9492.2913421145131 -1451.5145222545962 -999953.89369243803
 9256.1892465458732 -1734.1602271283318 -999955.65684131137
 9190.1787961767186 -1958.2057680365122 -999955.85204741149
 9254.2750411043344 -2133.819899971646 -999954.90158611583
 9416.9060336615039 -2267.9148573920625 -999953.08812111418
 9652.0390964518028 -2365.0230480277046 -999950.62118449772
 9937.2194434421035 -2427.9366268396057 -999947.67702788766
 10252.186295546111 -2458.1091707531768 -999944.42364336737
 10577.790590208535 -2455.853433226393 -999941.03782680316
 10895.020540996797 -2420.3593599219134 -999937.71825448202
 11183.918457030957 -2349.5629138001968 -999934.69762883068
 11422.203399287971 -2239.8709638813616 -999932.25582914893
 11583.341128331154 -2085.755215824161 -999930.73551795783
 11633.771333037792 -1879.2090951797518 -999930.55955788621
 11528.851798565243 -1609.0676583018294 -999932.24594343267
 11206.985494616276 -1260.1579037237645 -999936.4057169744
 10581.279823194876 -812.23463413620891 -999943.68681051361
 9528.3210578744183 -238.63466996217764 -999954.57604398846
 7874.7207330142828 495.27724091006894 -999968.87125241652
 5385.9360399032184 1433.0976857718172 -999984.46884139022
 1773.5512359101676 2624.2758424630674 -999994.98383357725
 -3226.2274274646761 4104.537907083135 -999986.372019717
 -9521.3496262835597 5822.9279242755338 -999937.71676624077
 -15415.587063754841 7394.6045065291237 -999853.8290668648
 -0 0 -0
 42271.543830710143 7360.9807332153387 -999079.04219076375
 35982.520792056443 6032.7455325505771 -999334.21045153309
 28768.559693448889 4246.5769914068669 -999577.07884735963
 22752.444793491624 2759.3016416532464 -999737.32175525441
 18275.194824510047 1603.3026593088089 -999831.70917645376
 15079.378018440804 710.46301917405765 -999886.04730782984
 12843.238064381709 17.31962769712052 -999917.52206672123
 11304.002082178873 -524.96048542592484 -999935.96992678219
 10269.861683386267 -952.63554646084992 -999946.80979866104
 9606.0054358458801 -1292.4668441522426 -999953.02599123295
 9218.1836925917287 -1564.1149928032066 -999956.28836149583
 9039.5363088710183 -1781.8629000136455 -999957.55497317284
 9021.2494498939013 -1955.8984128533957 -999957.39485228143
 9126.2634202971421 -2093.3231539816497 -999956.16369626764
 9325.151249262608 -2198.9528920358944 -999954.1020268664
 9593.4295629583394 -2275.9389479335819 -999951.39192419022
 9909.7983870762273 -2326.2141544014603 -999948.19096972968
 10254.926509731205 -2350.7824876291193 -999944.65362037695
 10610.535244613433 -2349.8630664897732 -999940.9455989846
 10958.550418086021 -2322.913985163997 -999937.25515321794
 11280.152184896619 -2268.5428753096576 -999933.80374898226
 11554.506489910164 -2184.3182655995902 -999930.85867648327
 11756.967183273127 -2066.4724805454334 -999928.74916872883
 11856.430323287066 -1909.4898486824929 -999927.88685410027
 11811.462391798694 -1705.541147990024 -999928.78770718456
 11564.667792639775 -1443.7100918818282 -999932.08477376925
 11034.729252396059 -1108.9032805885831 -999938.50065083522
 10105.673399369029 -680.3094295559838 -999948.70495652186
 8613.8349624242674 -129.27900383096519 -999962.89187858335
 6335.9240891591899 583.24814834793278 -999979.75773889234
 2990.4606611065569 1508.6789135458373 -999994.39050075191
 -1709.2165084737153 2707.3105062367567 -999994.87451123982
 -7835.4085949605742 4216.1601509487427 -999960.414399356
 -14574.685914651558 5854.2915846776759 -999876.64529207337
 -19475.362322894689 6526.7754340079337 -999789.03347897646
 41385.02849525222 4793.8217045859428 -999131.77243540389
 34703.554235525276 3848.2010959415352 -999390.2414331187
 27491.165596517127 2606.9387333993313 -999618.64712728583
 21694.030169400627 1539.7046755700455 -999763.47120932641
 17438.354775819018 706.51503045907282 -999847.69071055239
 14423.846077900704 65.444107669368009 -999895.96877944737
 12328.130199577827 -431.07482339498841 -999923.91279550793
 10896.51279672676 -820.11680899280009 -999940.29492629715
 9945.3857637797119 -1128.5341715970446 -999949.90660164249
 9346.5002622791999 -1375.5039819205838 -999955.3744651021
 9010.5608450491782 -1574.7057870619028 -999958.16417235276
 8874.4083523171157 -1735.8593887985983 -999959.11499849753
 8891.9710443866788 -1865.7961874986408 -999958.7249759523
 9028.2019400647769 -1969.2285448135237 -999957.30594294239
 9255.1220612180732 -2049.3250181343196 -999955.07048197021
 9549.2890960144068 -2108.1360633682252 -999952.18227678235
 9890.163276222389 -2146.901059656323 -999948.7864316901
 10259.023909150093 -2166.2450808638778 -999945.02839440177
 10638.151226055012 -2166.2847266075255 -999941.06673792261
 11010.083598323599 -2146.6469930042717 -999937.08300364832
 11356.745350715415 -2106.4159519342925 -999933.29144842282
 11658.276380850693 -2044.0023053038765 -999929.95086976141
 11891.322113790018 -1956.9373668030728 -999927.38079048938
 12026.521020244902 -1841.5672550868401 -999925.98297183705
 12024.794245392715 -1692.620498086507 -999926.26696132205
 11831.974726718583 -1502.5853562821933 -999928.87077597354
 11371.199900272311 -1260.8224393856717 -999934.55092801177
 10532.642697749579 -952.32135567248372 -999944.07669721055
 9160.8252773206023 -556.11027574794502 -999957.8841239264
 7042.1961410113227 -43.712629561735127 -999975.20247390005
 3902.6511332954547 620.53579294815779 -999992.19209424884
 -555.79640764850933 1470.606504352995 -999998.76420266787
 -6498.8037932806837 2498.1153653179999 -999975.7621907033
 -13486.225646567022 3520.1942831076321 -999902.86025694478
 -19293.924959331169 4017.7230516973982 -999805.78232031816
 40505.391234100527 2392.4922893728076 -999176.45551805198
 33690.072574776153 1882.4174606324591 -999430.55562375626
 26567.302115483544 1170.7341469411224 -999646.34138272202
 20946.94477968667 514.17484362119956 -999780.45646463148
 16854.040373821379 -16.875592480143343 -999857.96043152653
 13967.727483186114 -431.3129142873118 -999902.35351164453
 11969.101733630552 -754.54514202273401 -999928.08304663526
 10610.954384265773 -1009.4578280009396 -999943.19270743988
 9716.260895827334 -1213.1970972428321 -999952.06006438483
 9161.7063067627823 -1377.9625857059293 -999957.08125732117
 8861.5446650722679 -1512.3150448808508 -999959.59214827965
 8755.1514791666414 -1622.2264902748511 -999960.35706611467
 8798.2732111809928 -1711.8191700943128 -999959.82922496961
 8957.1557194323341 -1783.8858748382042 -999958.29268655169
 9204.7359174734211 -1840.2615670296173 -999955.94216648093
 9518.2100614316623 -1882.0967273851306 -999952.92958675569
 9877.4999594482779 -1910.0491982119627 -999949.39207272464
 10264.239810658655 -1924.4134833359965 -999945.46952014056
 10661.03823452044 -1925.1890331764707 -999941.31623358233
 11050.78881641889 -1912.1003541724326 -999937.10999180889
 11415.867817406121 -1884.5655851273239 -999933.0609468472
 11737.015436223604 -1841.6204312967932 -999929.42296085937
 11991.708441087665 -1781.7847469792773 -999926.50938545435
 12151.732111897876 -1702.8651091668262 -999924.71499463415
 12179.612940397543 -1601.6622695525377 -999924.54300641932
 12023.424410087693 -1473.5548406423502 -999926.63025923376
 11609.428666901178 -1311.915137098332 -999931.74769316206
 10832.021539395741 -1107.3628387455353 -999940.71877132449
 9540.9885633650829 -847.01250422078454 -999954.125001268
 7527.873302240253 -514.39592967429178 -999971.53285499744
 4518.7982148631863 -92.140558922359148 -999989.78593424195
 196.78645275914641 427.17921784815314 -999999.8893964981
 -5677.2108711073897 1011.4620488375549 -999983.37297239562
 -12826.678859261354 1537.3172242496462 -999916.55300089589
 -19034.899872444952 1796.7101549395984 -999817.20550281834
 39931.095881719441 507.11095438999843 -999202.30705306341
 33082.360573869613 277.83801364314297 -999452.59028375056
 26018.015335688218 -48.709765152465856 -999661.47295239451
 20499.006016251653 -362.81493469673688 -999789.80746838416
 16501.720699285233 -624.67509956979131 -999863.64220076683
 13691.153357820085 -833.09927530108598 -999905.92470758501
 11749.621854531724 -998.2615385438238 -999930.47251305252
 10434.514899618214 -1130.6505033039284 -999944.91974720755
 9572.9714870456373 -1238.3819012830734 -999953.41122833069
 9044.7476224965085 -1327.22345712525 -999958.21463616169
 8766.2343190494503 -1401.1613528730531 -999960.59416495333
 8678.2862229798284 -1462.9090306530413 -999961.27287280478
 8737.6706023744937 -1514.2766465610614 -999960.67926628096
 8911.3410173381471 -1556.4271973292086 -999959.08193068206
 9172.7122730223327 -1590.0627194313404 -999956.66558611672
 9499.3042485480364 -1615.5585299185473 -999953.57551709842
 9871.2525898438653 -1633.0638723357042 -999949.94448457099
 10270.35095659903 -1642.5687646044889 -999945.90946664824
 10679.343824597454 -1643.9470290388367 -999941.62282287353
 11081.283847605346 -1636.9710474918484 -999937.26076893357
 11458.754779330557 -1621.3060048866359 -999933.03191051027
 11792.800564339062 -1596.4759954532667 -999929.18805245683
 12061.332315590635 -1561.8053293885935 -999926.03977838566
 12236.769397372573 -1516.3210675917471 -999923.97823291307
 12282.54208075317 -1458.6119466522975 -999923.50287970703
 12148.012218661202 -1386.622836128179 -999925.24874424748
 11761.21719914088 -1297.3824394850822 -999929.9928338984
 11018.863156198207 -1186.6849407902339 -999938.58633097901
 9773.2880536415123 -1048.875860850261 -999951.6901831053
 7817.5850739563339 -877.20206891076475 -999969.05746135046
 4874.7896111816272 -665.91710654415203 -999987.89641707856
 612.15789050204103 -416.4684544034792 -999999.72590833413
 -5248.672558251531 -150.09201486461197 -999986.21435935982
 -12482.843757022692 78.82292420323752 -999922.08316382533
 -18837.265248766184 198.86830863054021 -999822.54319921369
 39706.402427942179 -1100.7533179733139 -999210.78354287345
 32857.35868089729 -1125.6692369561256 -999459.4173098196
 25817.671396496266 -1145.1892052461646 -999666.01241882099