# OOMMF OVF 2.0
#
# Segment count: 1
#
# Begin: Segment
# Begin: Header
#
# Title: Oxs_TimeDriver::Magnetization
# Desc: Oxs vector field output
# Desc:  MIF source file: /mnt/gpfs/work/plgrid/groups/plggspinsym/MF/switching-obrazki/p-ap/Anisotropy.mif
# Desc:  Iteration: 400, State id: 2873
# Desc:  Stage: 0, Stage iteration: 400
# Desc:  Stage simulation time: 5.92016e-11 s
# Desc:  Total simulation time: 5.92016e-11 s
# meshunit: m
# meshtype: rectangular
# xbase: 1.0000000000000001e-09
# ybase: 1.0000000000000001e-09
# zbase: 3.4999999999999998e-10
# xnodes: 35
# ynodes: 35
# znodes: 5
# xstepsize: 2.0000000000000001e-09
# ystepsize: 2.0000000000000001e-09
# zstepsize: 6.9999999999999996e-10
# xmin: 0
# ymin: 0
# zmin: 0
# xmax: 7.0000000000000005e-08
# ymax: 7.0000000000000005e-08
# zmax: 3.4999999999999999e-09
# valuedim: 3
# valuelabels: Magnetization_x Magnetization_y Magnetization_z
# valueunits: A/m A/m A/m
#
# End: Header
#
# Begin: Data Text
 -0 0 -0
 0 0 -0
 -0 -0 0
 -0 0 0
 0 0 0
 -0 0 -0
 0 0 0
 0 -0 0
 -0 0 0
 0 0 0
 0 0 0
 -0 -0 0
 0 0 0
 1272.3746775167838 -35095.528401830532 -999383.1522238485
 4090.5775253193442 -34821.262681729124 -999385.18442128168
 6801.5028362881121 -34582.686404671564 -999378.69567056687
 8885.0762531818091 -34515.534803784132 -999364.66481319221
 10562.390506473854 -34620.904980493942 -999344.69971332746
 12157.927760847533 -34874.363005325511 -999317.74906559894
 14004.758218468922 -35254.053501550035 -999280.25020959554
 16382.431212277032 -35719.858164253288 -999227.55550490122
 18972.423839199033 -36119.838633785941 -999167.35554697493
 0 0 0
 -0 0 -0
 -0 0 -0
 -0 0 0
 0 -0 0
 -0 0 0
 -0 -0 0
 0 0 0
 0 -0 0
 0 -0 -0
 0 -0 0
 -0 -0 0
 0 0 -0
 -0 -0 -0
 -0 -0 -0
 -0 -0 -0
 -0 0 -0
 0 0 -0
 0 0 -0
 -0 -0 0
 0 0 0
 0 0 -0
 0 0 0
 -3581.6454618672014 -32661.875935393575 -999460.04106025503
 -1068.2342513895342 -31887.271709125176 -999490.9007982678
 801.16721299932374 -30650.251202561059 -999529.84959545685
 2371.6648837113553 -30167.34985199018 -999542.04824438819
 4870.589632050388 -29093.498851840064 -999564.82815332885
 7215.5540922893151 -28451.026061843062 -999569.14462940965
 9084.5367338212054 -28205.60741276867 -999560.86102988664
 10633.175613139671 -28236.276175696777 -999544.72050234443
 12122.59002487185 -28480.140118565108 -999520.8474213609
 13832.103748600588 -28937.505867091819 -999485.51448236627
 16004.920219715459 -29674.598658277573 -999431.46874772292
 18562.619040353889 -30748.678099853998 -999354.76582116436
 20638.906435739864 -31423.695671063018 -999293.04355204501
 22411.744188660799 -33259.52389564053 -999195.43523409741
 24588.672147028279 -34475.13036966134 -999103.02901554678
 -0 0 -0
 0 -0 0
 -0 0 -0
 0 -0 -0
 -0 0 0
 -0 0 0
 -0 0 -0
 -0 0 0
 -0 0 -0
 -0 0 0
 0 -0 -0
 -0 0 -0
 -0 0 0
 -0 0 0
 -0 -0 0
 0 0 -0
 0 -0 -0
 -0 -0 0
 -8621.4826945437053 -29969.307973730418 -999513.63703339419
 -5723.0325942151749 -29004.494671411114 -999562.89756412117
 -2797.8004599623641 -28154.816105631973 -999599.65918493795
 130.89669540742855 -26459.066752796534 -999649.88903746998
 2355.4341710375006 -24810.744145474451 -999689.39121349761
 4171.5027868293191 -23416.283536894094 -999717.09809816675
 6092.4931193495731 -22204.155511430305 -999734.89336204273
 7875.8989841407838 -21454.278154689986 -999738.80797138822
 9384.5726723374846 -21121.183467230716 -999732.87702500867
 10696.793400597551 -21096.404721503317 -999720.22102124721
 11979.912718411217 -21320.57683892408 -999700.9126206272
 13419.930315994303 -21803.995028071287 -999672.19190649176
 15160.566665119683 -22629.509394634049 -999628.96242703497
 17167.971401674193 -23898.804089965251 -999566.96019877563
 19168.148709640271 -25497.21991991717 -999491.10743988142
 21333.461240968601 -27492.387415837416 -999394.34262239933
 24133.201509278304 -29438.490031107467 -999275.21929126256
 27154.14821129958 -30577.892348302972 -999163.47247807973
 29841.286113084247 -32094.346815408328 -999039.26376574894
 -0 0 -0
 -0 -0 -0
 0 0 -0
 -0 0 0
 -0 0 -0
 0 0 -0
 0 -0 -0
 -0 -0 -0
 -0 -0 0
 0 0 0
 0 0 0
 0 0 -0
 -0 0 0
 0 0 0
 -0 -0 -0
 -11152.502955752143 -26984.150049334254 -999573.64777385804
 -7848.3081951714021 -26114.699862967878 -999628.1441163714
 -4003.4257325135468 -24076.301422968863 -999702.10777620866
 -735.81065739538099 -22076.196563238438 -999756.02030094201
 1968.4678140878348 -20169.738769173386 -999794.63229827781
 4054.928192874791 -18563.154044268285 -999819.46713858249
 5717.125352905924 -17263.520571718993 -999834.62899379968
 7203.08656039776 -16258.511110601417 -999841.87567858433
 8531.5705963920827 -15613.01632576128 -999841.71048439969
 9693.6181781765317 -15301.382656308822 -999835.93726942083
 10746.02174730669 -15263.313236667198 -999825.76196337619
 11791.902344384653 -15462.402800433012 -999810.91469274194
 12945.483638080854 -15907.861011255207 -999789.6550832194
 14293.685309563731 -16653.114925280413 -999759.15315817762
 15851.97796458903 -17758.629674171512 -999716.63278486358
 17594.380963257277 -19215.532864037024 -999660.54291207832
 19662.854441712108 -21014.411016660539 -999585.79756058322
 22295.14467394392 -23080.151231030042 -999484.98395079502
 25489.984189376588 -25269.629432609061 -999355.64567093144
 29208.248663014099 -27527.402587156725 -999194.23553023185
 32632.404298947924 -28511.608883130029 -999060.66600010102
 -0 -0 -0
 0 -0 0
 -0 0 -0
 -0 -0 -0
 0 -0 -0
 0 -0 -0
 0 0 -0
 0 -0 -0
 -0 0 -0
 0 0 -0
 -0 0 0
 -0 0 0
 -0 0 -0
 -12372.283310138597 -25186.984763997054 -999606.19366037915
 -9421.8296342315898 -23699.104860306183 -999674.73787985859
 -5370.6761108521532 -21175.740020842892 -999761.34345786856
 -1605.8876853802008 -18679.919104138826 -999824.22542515188
 1408.5338122429805 -16582.35508722363 -999861.51117655355
 3742.2026907267928 -14860.650631643779 -999882.5715961979
 5521.2793012886477 -13496.191167897492 -999893.67849728744
 6911.7038512921681 -12443.287463802662 -999898.69134176045
 8069.316102480836 -11669.474328049444 -999899.34968802985
 9068.9400387368169 -11170.190744678983 -999896.48522499634
 9952.7474169847337 -10923.1254985506 -999890.80811266403
 10773.781929350902 -10896.205799443671 -999882.59226876963
 11601.259295784655 -11070.294383968048 -999871.42141627602
 12508.638658074844 -11451.611689426005 -999856.18693321897
 13557.489610722776 -12070.046496031315 -999835.24065369845
 14788.358440126924 -12961.028452648789 -999806.63940388791
 16246.718187175755 -14142.189085473619 -999767.99440471036
 18046.479071880851 -15630.45335113104 -999714.96613842179
 20350.335101952613 -17444.44109102416 -999640.71312460047
 23292.983732973731 -19604.466803739859 -999536.44345274207
 26980.084684740159 -22128.518985775208 -999391.01640844264
 31124.081884385439 -24686.266080678379 -999210.62834311754
 34394.674722525211 -26352.097498384857 -999060.84564863576
 0 -0 -0
 -0 0 -0
 0 0 0
 0 0 -0
 0 -0 0
 -0 0 0
 -0 0 0
 0 -0 0
 -0 -0 -0
 -0 -0 -0
 0 0 0
 -13134.488775090822 -24014.361320262826 -999625.3276378091
 -10327.750676600521 -22252.153965831068 -999699.04431776039
 -6370.3187272249788 -19357.638956294108 -999792.32886302518
 -2487.5794378949199 -16503.561547152287 -999860.71250189608
 776.70971454468281 -14115.009421937895 -999900.07662317855
 3319.6627052144167 -12240.194103855943 -999919.57550986239
 5246.2273625242342 -10792.595589561175 -999927.99589715491
 6698.9548038890807 -9690.9514910503494 -999930.60232384806
 7817.0525208796153 -8870.2805926861438 -999930.10346328351
 8716.6737888332791 -8286.9722635112066 -999927.67022858339
 9475.2489665417033 -7916.0478224427379 -999923.77501682355
 10146.586797808111 -7735.8249412918458 -999918.59858132084
 10779.757007010961 -7726.7719293758628 -999912.04304899811
 11426.227633649143 -7878.558490638583 -999903.68018033286
 12138.095896667422 -8195.1942676722392 -999892.74695785157
 12963.962388362943 -8694.0575174178448 -999878.16709991079
 13950.030889433634 -9398.843764776324 -999858.5191786231
 15154.868595959186 -10333.439246621856 -999831.76084338082
 16671.86522355233 -11529.001677410075 -999794.54440914502
 18628.164056369242 -13032.371874147595 -999741.54099308257
 21166.206637540923 -14912.863577070691 -999664.7428995925
 24419.226703781402 -17256.552409861233 -999552.85641436442
 28369.713870317388 -20064.657881838928 -999396.10207314754
 32566.201649389135 -23041.166510351351 -999203.95673554728
 35767.750869839125 -25104.659052940737 -999044.7558000338
 0 -0 0
 0 0 0
 0 -0 -0
 0 -0 0
 0 -0 -0
 -0 -0 0
 0 -0 -0
 0 -0 0
 0 0 -0
 -14065.606956967733 -22872.364105165831 -999639.44182948943
 -11143.202687224097 -21142.536153844707 -999714.3703072666
 -7136.3756379369825 -18168.091005523955 -999809.4781566984
 -3206.7512613909221 -15143.965459636343 -999880.18134999799
 164.15901931810708 -12558.162598466995 -999921.12969172059
 2856.5155395319498 -10512.138684902839 -999940.66586935148
 4917.5233230338963 -8951.7297088068244 -999947.84088950756
 6463.6550592067051 -7779.7724515188929 -999948.84684361634
 7620.5257674072354 -6910.4590272566875 -999947.08517154085
 8500.6592391161139 -6279.3740012567614 -999944.15256785846
 9195.2923305719014 -5842.5255058359053 -999940.65398635971
 9772.0748464815515 -5571.4863998418741 -999936.7305447337
 10281.935828769661 -5446.3358899839759 -999932.30731934379
 10768.096915932107 -5453.2272615135162 -999927.15254724596
 11271.444377329222 -5585.7712556229553 -999920.87372008036
 11832.152727088198 -5846.5961565703938 -999912.90494483802
 12490.323296829743 -6246.9077477464161 -999902.4792286153
 13289.244704237395 -6804.3380471405089 -999888.5422680527
 14283.70908409917 -7542.2736951711067 -999869.53637077461
 15550.091484416947 -8494.3751511591654 -999843.0077995332
 17189.470727837896 -9711.6016566852195 -999805.08444864326
 19323.414794639419 -11268.951972310835 -999749.77687525377
 22079.56142268272 -13264.411789976419 -999668.2191343524
 25539.69349533079 -15784.610184045527 -999549.1834509708
 29635.931108480017 -18811.204747795393 -999383.73519047746
 33943.386493606034 -21972.351381068136 -999182.19674298272
 37271.379061508655 -24128.692881752177 -999013.83898456127
 0 -0 0
 0 -0 0
 0 0 -0
 0 0 -0
 0 0 -0
 0 -0 0
 -0 0 -0
 -15831.049497391607 -21190.690926351177 -999650.10503169301
 -12459.474149102 -19849.174846585993 -999725.34816410323
 -8125.712483463908 -17097.160291461369 -999820.81389947259
 -3977.6388405669941 -14143.399143554365 -999892.06550003216
 -451.78541750928218 -11524.427260639901 -999933.48952130345
 2373.906430547951 -9395.3250051459599 -999953.04511577287
 4556.9774478862537 -7744.4417474909606 -999959.62797432928
 6202.2686940658932 -6498.7985181988606 -999959.64792628819
 7425.3101638844601 -5574.1839005203756 -999956.89569241588
 8333.0980776489032 -4898.3086200576045 -999953.28193325642
 9016.5133227392398 -4416.4718226367513 -999949.59736185742
 9548.538727564679 -4090.2596954793039 -999946.04613638611
 9985.5948518277255 -3893.8873319592312 -999942.56111883791
 10371.834278274793 -3810.2115845754561 -999938.95180725143
 10744.21744855943 -3828.572763624235 -999934.94979524123
 11136.344626970062 -3944.434934848362 -999930.20919531886
 11580.816454427053 -4159.5718834451573 -999924.28845987888
 12111.250904965415 -4481.9021001351803 -999916.61160072836
 12765.484231571401 -4925.1782676936436 -999906.38813409174
 13590.697242021135 -5509.8463462598893 -999892.46148859255
 14649.12517870507 -6266.3078250677563 -999873.06020201382
 16021.650768970521 -7239.8538346585437 -999845.43366616929
 17808.299795317856 -8495.5285202457308 -999805.32627785194
 20123.600121623709 -10118.778098729661 -999746.29334043257
 23079.996275542671 -12202.518023508979 -999659.14807288512
 26752.833400789968 -14807.639060345224 -999532.4005406166
 31098.669606494099 -17862.564670040698 -999356.6938446525
 35731.929215165168 -20934.184884739381 -999142.12659549806
 39480.375809003817 -22844.955539162514 -998959.16229463206
 0 0 0
 0 0 0
 -0 0 0
 0 -0 0
 -0 0 -0
 -18966.898570624187 -18268.144922399595 -999653.20568670495
 -14955.806296061763 -17903.92045205821 -999727.8497123511
 -9910.0557213103675 -15775.645324720359 -999826.44484439853
 -5213.3307655528433 -13155.745190079251 -999899.86876227893
 -1312.7383085223601 -10687.952503796174 -999942.0205138945
 1763.9753089831624 -8601.0549488198867 -999961.45437955589
 4122.3893229665027 -6934.2749741911821 -999967.46033901139
 5895.0795085421041 -5649.1628677811632 -999966.66694269422
 7208.1823374943524 -4681.5058371934847 -999963.0621230395
 8172.1659166095278 -3965.8861877249356 -999958.74287441361
 8879.5223714275744 -3446.6919351394654 -999954.6361696414
 9405.3361520911112 -3081.1176969951202 -999951.02198337868
 9809.1928990010529 -2838.3000739926265 -999947.86053441814
 10137.873661677293 -2697.0126764837964 -999944.97330615309
 10428.721388774566 -2643.2603865332749 -999942.12579765043
 10713.058663473623 -2668.6708601927153 -999939.05242765334
 11019.039778537915 -2769.7828546784312 -999935.45244945528
 11373.896501508616 -2947.8299972407249 -999930.97000576998
 11806.077347613475 -3208.7021702044831 -999925.15758332866
 12347.932335368949 -3563.2048890481492 -999917.41265864566
 13039.229410217187 -4028.1371672752284 -999906.87196725945
 13931.05772311233 -4628.6032795534202 -999892.24502563069
 15089.293885113082 -5401.2480196924162 -999871.56161672994
 16597.211348585111 -6397.3885709419292 -999841.79048233561
 18556.65016593946 -7683.8448006807712 -999798.28428723465
 21086.257003952509 -9337.3862539729125 -999734.05612868234
 24314.07009386913 -11426.388643862159 -999639.06668258493
 28351.658600918985 -13965.222479841002 -999500.45323434717
 33205.540955264776 -16807.452173366648 -999307.21082223172
 38511.306386251257 -19400.816665778013 -999069.81117093377
 42941.5059575341 -20446.439072825808 -998868.34477589699
 0 0 0
 -0 -0 -0
 0 -0 -0
 0 0 -0
 -17936.544840509505 -15756.306529090498 -999714.96896052628
 -12902.366011844466 -14240.983482548927 -999815.3446215688
 -7390.030825667247 -12068.525366215663 -999899.86405633704
 -2782.3202557638851 -9873.8264202824175 -999947.38173856738
 789.30485851211961 -7933.2253212679625 -999968.21996193565
 3476.205091350289 -6330.0410795780354 -999973.92294904066
 5465.9844364840155 -5059.2388193963861 -999972.26317368855
 6923.3799191558292 -4080.1253983611919 -999967.70917226549
 7981.3478616961374 -3341.9179091844226 -999962.56413477741
 8744.6892530016503 -2796.0005463124585 -999957.85550732736
 9295.4359401485217 -2401.3128187181524 -999953.91322171898
 9697.6287289485499 -2125.817474337603 -999950.71723415493
 10001.267461040507 -1945.9265485901988 -999948.09266233409
 10245.678756021778 -1845.1000100170877 -999945.80936807836
 10462.537144933012 -1812.3684343420009 -999943.62372943258
 10678.53879453336 -1841.2239256092269 -999941.28762826324
 10917.664183865014 -1928.9862871025628 -999938.53992166568
 11203.123591368356 -2076.5395953774473 -999935.08689569694
 11559.263299028138 -2288.3468567363407 -999930.57104013348
 12013.756839102562 -2572.8106015026624 -999924.52229766839
 12600.260647034713 -2943.1799523027339 -999916.28205735073
 13361.478608210264 -3419.1296790104998 -999904.88569745491
 14352.507749109234 -4028.8232802012094 -999888.88087841449
 15644.529334210594 -4810.8702683027668 -999866.04314236622
 17329.03817140785 -5815.0208790322613 -999832.93102809449
 19522.6617534707 -7099.6319243698699 -999784.20716902614
 22371.471776713788 -8722.6569031135823 -999711.67468780419
 26047.338583008048 -10719.38846172078 -999603.23672132473
 30705.101514302794 -13051.435554703989 -999443.27341323264
 36273.017555596496 -15490.379556666447 -999221.85541480314
 41498.555244503303 -17369.791647664166 -998987.56761570123
 -0 0 -0
 -0 -0 -0
 0 0 -0
 -21373.725199417077 -13303.825181074004 -999683.03582017997
 -16920.322776479017 -12930.657731351412 -999773.22467036219
 -10800.600730042748 -11104.261012652591 -999880.01400729734
 -5224.3569096858064 -9119.8063702808668 -999944.76608793181
 -849.56943149800668 -7332.4429530911284 -999972.75638495316
 2405.4764037679806 -5828.085098109058 -999980.12335613952
 4775.5064927092371 -4610.9757128068959 -999977.96647761879
 6482.3576827851521 -3653.3902026636788 -999972.31550623395
 7702.1890505078454 -2916.3778752379935 -999966.08493684372
 8567.9805982674279 -2359.9639053168526 -999960.50935966126
 9179.0133975856061 -1948.1320272792432 -999955.97427819355
 9609.7076028254069 -1650.9310132685962 -999952.46284339833
 9916.4033612390504 -1444.8881294069372 -999949.78736068099
 10142.334711174139 -1312.4933451213549 -999947.7038364684
 10321.335187355971 -1241.2913885372577 -999945.96315782925
 10480.715686289757 -1222.947030565022 -999944.32794994325
 10643.575453784697 -1252.5039070509379 -999942.57111872302
 10830.708049853265 -1327.9147693382577 -999940.46443051007
 11062.268950077474 -1449.8310896055741 -999937.76016084501
 11359.411747616094 -1621.636486657844 -999934.16486279387
 11746.106577568497 -1849.7619229089448 -999929.30118138716
 12251.307910793634 -2144.3583306698642 -999922.65059944766
 12911.589580308722 -2520.3546001577547 -999913.46558949759
 13774.407609719583 -2998.7843757957589 -999900.63155659067
 14902.322256805362 -3608.0674264155764 -999882.44441074191
 16378.713521606633 -4384.6815290472505 -999856.24582300126
 18315.578785582478 -5372.3421717730507 -999817.82216228696
 20863.262040789308 -6618.3078415637137 -999760.43245286099
 24218.055903848937 -8164.2561079693123 -999673.36199902883
 28608.753591781406 -10026.286452319699 -999540.4007832302
 34186.572315405072 -12147.853989989932 -999341.63723761728
 40539.500431910375 -14235.75696118104 -999076.51965626387
 45666.656861576092 -15101.887479862249 -998842.57490639249
 -0 -0 0
 0 0 -0
 -20620.692794237755 -11171.208975030255 -999724.9577352372
 -15180.23112502062 -10183.118533868457 -999832.91838182462
 -8798.0146562185819 -8507.3112187840215 -999925.10749252385
 -3412.2121717337968 -6839.7072918532822 -999970.78717943374
 673.26549780097196 -5411.4117381859814 -999985.13155774947
 3641.1907673643691 -4249.8198983142756 -999984.34025769983
 5755.3012080282497 -3328.6157992120707 -999977.89816818747
 7245.1459116045917 -2610.8467088746888 -999970.34523038846
 8286.5913413488361 -2060.3014670311318 -999963.54311635089
 9008.7484334604615 -1644.807020099812 -999958.0676516036
 9505.4577767856299 -1337.237225825424 -999953.92797321198
 9845.3025719591897 -1115.6517353190709 -999950.91146439384
 10079.114821588557 -962.97401729772332 -999948.74074897217
 10245.335808733636 -866.41424494386013 -999947.13981316146
 10373.833157444573 -816.80022528667939 -999945.856745761
 10488.684205913254 -807.94879431642198 -999944.66583025211
 10610.283929796891 -836.1679032633989 -999943.359745024
 10757.026731423653 -899.93025185144984 -999941.73655340599
 10946.762453391741 -999.72600434035019 -999939.58264472429
 11198.213379409912 -1138.0990419351617 -999936.65036725195
 11532.532582641186 -1319.8879311666726 -999932.62702448072
 11975.178745851636 -1552.7008632290056 -999927.0894490428
 12558.302329366292 -1847.6277292375034 -999919.43441178219
 13323.921933111324 -2220.1300103521003 -999908.76790188102
 14328.33284960725 -2690.9697106944864 -999893.72313249705
 15648.387018389238 -3286.9574198629161 -999872.15377499245
 17390.357199923688 -4041.2182333314081 -999840.60931312921
 19701.503976181451 -4992.5195793809926 -999793.44141143758
 22781.373763818061 -6182.5828044331256 -999721.35351771885
 26878.148766994203 -7647.471307676532 -999609.46439169801
 32213.684013852122 -9385.7600802320067 -999436.93451361486
 38641.313305280702 -11232.578884567509 -999190.01099773042
 44437.748359521669 -12527.892462977419 -998933.60061175842
 0 0 0
 -0 -0 0
 -19182.819132979817 -9616.4523634282159 -999769.74513837579
 -13369.368520368098 -8139.0639861824675 -999877.5003083105
 -7055.2614461095563 -6510.4626364412716 -999953.91751929594
 -1936.6851743310315 -5100.2113113542273 -999985.11843682709
 1863.8006830959569 -3963.1038241632123 -999990.40998156217
 4582.7059032263496 -3069.6710872603398 -999984.78784730553
 6490.9588092244794 -2375.8052878700055 -999976.11121614859
 7813.8969632372582 -1841.5364804242097 -999967.7753596059
 8721.3505336164963 -1434.1127546231157 -999960.9399198934
 9336.6093496907288 -1127.3529572539342 -999955.77742276224
 9748.2291630220989 -900.54431294484675 -999952.07937586971
 10020.095226108317 -737.51245267334582 -999949.52560968895
 10198.963385108966 -625.86962299768402 -999947.79335377517
 10319.833602997827 -556.37751241006333 -999946.59431315132
 10409.727730841372 -522.39861550752209 -999945.68085884349
 10490.375085164105 -519.4420891775892 -999944.83958390844
 10580.184062073618 -544.81967124092546 -999943.87986363447
 10695.774641990767 -597.42223403335333 -999942.62009951449
 10853.283248645568 -677.62135973238082 -999940.87178793596
 11069.62042005004 -787.30151283710541 -999938.41993398976
 11363.852446322482 -930.03454650622007 -999934.99683395447
 11758.889123361738 -1111.4100129998185 -999930.24421424908
 12283.703129539863 -1339.5242836204234 -999923.65524179826
 12976.39953613354 -1625.6114612462586 -999914.48156452668
 13888.601700613739 -1984.7827272559357 -999901.578846802
 15091.787723569027 -2436.844101851259 -999883.14303929021
 16686.264069349458 -3007.1938644489237 -999856.25235654216
 18812.954055057733 -3727.8141242256088 -999816.07116588077
 21665.704837469242 -4638.0867810973677 -999754.51256041182
 25492.85666129833 -5783.3911927407044 -999658.27493476914
 30545.436601941652 -7201.7855996991166 -999507.43398284586
 36808.129505599602 -8862.2525935355552 -999283.05403487512
 42809.370789735542 -10423.886872589221 -999028.87863917847
 -0 0 -0
 -23120.31427960956 -8400.9332375290815 -999697.39190834668
 -18420.155328396962 -7864.4703731489844 -999799.40387231065
 -11771.258328593005 -6312.196506557686 -999910.79284735397
 -5603.8822953076324 -4870.7523681127577 -999972.4357574007
 -765.96771714898478 -3726.7766126090673 -999992.762188575
 2778.7634175220951 -2847.0076948949445 -999992.0864792153
 5290.9078829632399 -2174.987448705564 -999983.63772782392
 7036.7552069718149 -1662.3802356412871 -999973.85994240316
 8232.5702161847639 -1272.1084401974117 -999965.30266192346
 9040.1984195636978 -976.43877472596205 -999958.65983542264
 9576.7054626093777 -754.60550507080006 -999953.85757694545
 9925.8261671974851 -590.95507511759922 -999950.56315149786
 10147.632231397865 -473.65890353812961 -999948.39927235211
 10285.808772342398 -393.83289174452034 -999947.02211344778
 10372.863289590934 -344.91408716632418 -999946.14092032379
 10433.785129629963 -322.20153133261618 -999945.51467269531
 10488.625460607058 -322.51470519424237 -999944.94084435061
 10554.364079043033 -343.94987774360607 -999944.24199420656
 10646.336971652285 -385.72678289453569 -999943.25175178563
 10779.43525571614 -448.12359502683603 -999941.79978677351
 10969.25194107583 -532.50249317088139 -999939.69415807677
 11233.343984644409 -641.43231062777215 -999936.69827020215
 11592.794000776292 -778.91674676684556 -999932.49792971357
 12074.30496647224 -950.73571767679584 -999926.65094054351
 12713.150908145342 -1164.9078059034539 -999918.50607126497
 13557.436669898556 -1432.2932561298583 -999907.06790529785
 14674.261642662144 -1767.3925129637753 -999890.76521835499
 16158.426467086068 -2189.4646048588256 -999867.04691116407
 18143.935105064069 -2724.1793545827172 -999831.67406606372
 20816.761846463043 -3406.0288582574808 -999777.50594501977
 24421.336107439209 -4281.2904687840955 -999692.58719600877
 29233.908340961731 -5409.0636312183797 -999557.96261834947
 35411.457844595199 -6845.3915168988242 -999349.37297638843
 42425.630094333144 -8504.460221118974 -999063.43145340192
 48075.140003990535 -9478.6917959580569 -998798.74615231366
 -23011.510830363859 -5769.0824041792694 -999718.55442295247
 -17390.331473500959 -5332.8474087035975 -999834.55486883293
 -10488.259791675764 -4366.1039556208352 -999935.46468899213
 -4495.9698101611866 -3386.6155550774647 -999984.15841979627
 108.44610646328516 -2579.089774760329 -999996.66826213757
 3451.5444829332355 -1953.4976237350518 -999992.1353129315
 5805.1888440675039 -1477.6130614142389 -999982.05806010612
 7429.3565085065584 -1117.1939580163753 -999971.77787152049
 8531.8003748150386 -844.60347247219715 -999963.24683827162
 9267.2199287790263 -639.10933202235549 -999956.8541562449
 9747.3015007940448 -485.44530528535722 -999952.37609413592
 10051.81266476706 -372.36774263868853 -999949.40992253018
 10237.858698294631 -291.5640516517584 -999947.5492442979
 10346.852785767704 -236.89325628481083 -999946.44182526832
 10409.521986739699 -203.86583660720552 -999945.79867647262
 10449.430864284057 -189.28341482118867 -999945.3852918176
 10485.461424861207 -190.98740691073587 -999945.00779918814
 10533.597073881649 -207.68846652900297 -999944.49855888798
 10608.274924213845 -238.86283357972775 -999943.70213911484
 10723.511658455205 -284.70992908811695 -999942.46096361324
 10893.975075126495 -346.17088237067992 -999940.59897215024
 11136.165786791767 -425.01150224621904 -999937.90066023206
 11469.891915071579 -523.97614097559381 -999934.08134159527
 11920.268167138946 -647.02220702047907 -999928.74174567428
 12520.553744437257 -799.6524500882565 -999921.29504771123
 13316.259702208999 -989.37953474886399 -999910.84520355088
 14371.081331270218 -1226.3906612585583 -999895.97858343041
 15775.256955120027 -1524.5276966780596 -999874.40065405308
 17656.655509906763 -1902.7288416804474 -999842.29863471957
 20193.485389417372 -2386.9614162605967 -999793.24140695424
 23622.747050651473 -3011.937825131788 -999716.40681361174
 28223.506917519408 -3818.6838801548893 -999594.34337670216
 34207.114787048245 -4830.4961674371962 -999403.09165257355
 41307.465825796535 -5942.7396977638209 -999128.80906914861
 47516.561536548965 -6666.8594842698831 -998848.20136212918
 -22848.806739702912 -3331.0425756530685 -999733.3825505334
 -16798.014175562137 -3113.8043743559479 -999854.05482104048
 -9714.8960725887591 -2632.2789346350073 -999949.34466797311
 -3782.3028112002989 -2087.2353258864159 -999990.66877353343
 690.14594988450767 -1603.2883775301555 -999998.47658131283
 3904.1701295090502 -1214.3352881407661 -999991.64138777065
 6151.623582763953 -914.16162548159866 -999980.66073090571
 7693.158502922729 -686.04097123595034 -999970.17188515898
 8732.2228545194794 -513.69105998248017 -999961.74147089932
 9418.8860678090532 -384.05720828399672 -999955.56755553011
 9861.0641252321584 -287.33239685334559 -999951.33724317385
 10135.691132937387 -216.30019518619829 -999948.60916923289
 10297.776978418915 -165.67325164539136 -999946.9627643642
 10387.166996357508 -131.5850418748982 -999946.04326791863
 10433.387776774425 -111.23167316944246 -999945.56454189774
 10459.058845515345 -102.62619322463617 -999945.29728177178
 10482.293095822293 -104.43188417167823 -999945.05380317511
 10518.419721287886 -115.85257348679585 -999944.67318184569
 10581.284874296132 -136.56767124143454 -999944.00731224951
 10684.329369259432 -166.70628904319662 -999942.90702766739
 10841.611687028895 -206.85910966363704 -999941.20660433662
 11068.937747795058 -258.12984358485522 -999938.70411446691
 11385.277538805247 -322.23087197540588 -999935.1337074968
 11814.695196925353 -401.63150953413924 -999930.1233933972
 12389.097054831043 -499.77440193878164 -999923.12729515019
 13152.210100549701 -621.38827450397764 -999913.31286571198
 14165.323124002482 -772.94307937485507 -999899.36802649742
 15515.385608934914 -963.30361082590309 -999879.16512724652
 17325.853912063238 -1204.5880872413391 -999849.17050211004
 19769.581750547659 -1512.9633422363365 -999803.41796741879
 23079.243636942985 -1908.1266508964154 -999731.81782207533
 27538.609481777181 -2407.2666241542443 -999617.84200523875
 33398.454697212634 -3002.1034340815177 -999437.60715654935
 40518.688849132319 -3600.8133343484524 -999172.29244874406
 46981.920178621796 -3971.3466908618343 -998887.84534690913
 -22735.44579123121 -1495.3242437644942 -999740.3980584559
 -16518.617127968224 -1410.6004643533724 -999862.56330283196
 -9332.8796713268457 -1218.1553937262884 -999955.70574624825
 -3403.8684127436977 -983.83697854801915 -999993.72285261285
 1012.8364675019118 -763.49432553578174 -999999.19561902899
 4161.0371986817763 -580.22591650097957 -999991.17451471393
 6350.0675096110663 -436.35494245601024 -999979.7429133188
 7844.6518049510778 -326.26517719742685 -999969.17701951868
 8847.2862689128433 -242.9442538185657 -999960.83248483576
 9505.8637996850466 -180.29716095153071 -999954.80200174847
 9926.2310257153295 -133.60259251087294 -999950.72482996434
 10183.680780387453 -99.355476788312103 -999948.14004239836
 10331.992068379455 -74.990142914444675 -999946.62073351594
 10410.09346195268 -58.638668959993758 -999945.81178962893
 10446.817420352649 -48.952791409418587 -999945.42931572511
 10464.242817093733 -44.980492961690842 -999945.24730058096
 10480.045485401204 -46.082893503006005 -999945.08175348851
 10509.183855671883 -51.880315166566596 -999944.77565669629
 10565.169151951828 -62.220819900494476 -999944.18510702881
 10661.115597881833 -77.167852257518462 -999943.16571459745
 10810.736076048741 -97.006022254216148 -999941.55757990479
 11029.442622019322 -122.26577995877911 -999939.1663728985
 11335.729418055951 -153.7694049391697 -999935.73673188139
 11753.061133730342 -192.70301888168083 -999930.91182317876
 12312.564353723632 -240.72323652904439 -999924.1685304736
 13056.924727118307 -300.11297773168269 -999914.70968721679
 14046.014292155001 -374.00654734593633 -999901.27992797701
 15364.859540694268 -466.69781087581237 -999881.84466188215
 17134.442256097067 -583.98867882136403 -999853.02412194316
 19524.987695469481 -733.32222572622277 -999809.10032565962
 22768.231858114345 -922.82690014983041 -999740.34429374081
 27154.251106282674 -1156.9799681855816 -999630.58578867523
 32959.190001464805 -1424.6800323224431 -999455.68290007394