# OOMMF OVF 2.0
#
# Segment count: 1
#
# Begin: Segment
# Begin: Header
#
# Title: Oxs_TimeDriver::Magnetization
# Desc: Oxs vector field output
# Desc:  MIF source file: /mnt/gpfs/work/plgrid/groups/plggspinsym/MF/switching-obrazki/p-ap/Anisotropy.mif
# Desc:  Iteration: 26500, State id: 185650
# Desc:  Stage: 0, Stage iteration: 26500
# Desc:  Stage simulation time: 3.9019e-09 s
# Desc:  Total simulation time: 3.9019e-09 s
# meshunit: m
# meshtype: rectangular
# xbase: 1.0000000000000001e-09
# ybase: 1.0000000000000001e-09
# zbase: 3.4999999999999998e-10
# xnodes: 35
# ynodes: 35
# znodes: 5
# xstepsize: 2.0000000000000001e-09
# ystepsize: 2.0000000000000001e-09
# zstepsize: 6.9999999999999996e-10
# xmin: 0
# ymin: 0
# zmin: 0
# xmax: 7.0000000000000005e-08
# ymax: 7.0000000000000005e-08
# zmax: 3.4999999999999999e-09
# valuedim: 3
# valuelabels: Magnetization_x Magnetization_y Magnetization_z
# valueunits: A/m A/m A/m
#
# End: Header
#
# Begin: Data Text
 -0 0 -0
 0 0 -0
 -0 -0 0
 -0 0 0
 0 0 0
 -0 0 -0
 0 0 0
 0 -0 0
 -0 0 0
 0 0 0
 0 0 0
 -0 -0 0
 0 0 0
 14594.246697244404 22225.731729250398 -999646.44990738574
 12823.563292078135 21462.779799644195 -999687.40379568969
 11505.14855041458 20661.814307033546 -999720.32138312294
 10590.946870840084 20040.920104601712 -999743.06367473234
 9730.6482773550961 19661.52536233293 -999759.34049376543
 8615.8936715649179 19572.534526715339 -999771.31498580251
 6982.0414991717134 19830.462279052514 -999778.97750567982
 4694.1374167177328 20446.981927465891 -999779.91878411465
 2341.8838410720205 21185.664325955277 -999772.81579724047
 0 0 0
 -0 0 -0
 -0 0 -0
 -0 0 0
 0 -0 0
 -0 0 0
 -0 -0 0
 0 0 0
 0 -0 0
 0 -0 -0
 0 -0 0
 -0 -0 0
 0 0 -0
 -0 -0 -0
 -0 -0 -0
 -0 -0 -0
 -0 0 -0
 0 0 -0
 0 0 -0
 -0 -0 0
 0 0 0
 0 0 -0
 0 0 0
 17246.542481583128 20694.334091627854 -999637.08480074676
 15875.788802220111 18846.926192155024 -999696.33024384687
 14977.426470719802 16580.175417670609 -999750.3560786728
 13785.036277920341 16069.166241701156 -999775.85221444152
 12276.856075476835 15061.080152530882 -999811.20351271366
 11209.342563702587 14258.165424190604 -999835.51415121579
 10458.719117669665 13691.467748843903 -999851.5684366856
 9748.4118535090893 13371.131170731442 -999863.08128540753
 8838.2116513044057 13348.833381618728 -999871.83911847253
 7544.2471716489126 13718.604375127466 -999877.4346031677
 5824.2151619759779 14586.905335957057 -999876.64274672745
 4098.8315875080552 15852.493545296556 -999865.94002796873
 3299.7463961244293 16251.630913201254 -999862.4886285027
 1506.7854979000635 17628.118124850498 -999843.47727473814
 -994.08552009252503 18853.762961505323 -999821.75782294828
 -0 0 -0
 0 -0 0
 -0 0 -0
 0 -0 -0
 -0 0 0
 -0 0 0
 -0 0 -0
 -0 0 0
 -0 0 -0
 -0 0 0
 0 -0 -0
 -0 0 -0
 -0 0 0
 -0 0 0
 -0 -0 0
 0 0 -0
 0 -0 -0
 -0 -0 0
 19802.571327443817 18738.808773200479 -999628.28852258029
 17835.03503858667 16473.584117022572 -999705.22282896563
 16013.775934657207 15062.984803296367 -999758.30352597241
 14419.557236975053 12930.433365990748 -999812.42253837653
 13361.709584272005 10857.131830834036 -999851.78271851549
 12366.028777525329 9446.7446747631493 -999878.9128426119
 11407.351739729951 8397.211273597406 -999899.67455195845
 10708.535232890505 7684.768242925963 -999913.13203208742
 10200.680027577611 7226.8585781259908 -999921.85626781185
 9717.461493163777 7000.3700336014672 -999928.28030890366
 9106.1301335027838 7041.6868094669844 -999933.74432552746
 8263.0214038958766 7427.8846286071612 -999938.27259847533
 7181.4047893756369 8235.9933413930157 -999940.29613719019
 6009.089522119094 9417.8257106764195 -999937.59575385426
 4827.2225748572209 10660.712845317445 -999931.52121724933
 2959.9389998850957 12310.743936089309 -999919.83895953232
 401.75882721347227 14241.866539254723 -999898.49876241072
 -2113.871542831127 15391.572728735076 -999879.30823476717
 -5054.573737373812 16821.014576268142 -999845.74047847942
 -0 0 -0
 -0 -0 -0
 0 0 -0
 -0 0 0
 -0 0 -0
 0 0 -0
 0 -0 -0
 -0 -0 -0
 -0 -0 0
 0 0 0
 0 0 0
 0 0 -0
 -0 0 0
 0 0 0
 -0 -0 -0
 20719.754325642363 14679.196160983147 -999677.5545048276
 18179.682837863729 13451.738773164881 -999744.24222192599
 15711.044344178465 10987.285771496985 -999816.20442808943
 13896.175780341002 8817.0969502033222 -999864.56837916432
 12602.807605142367 6879.5501322239279 -999896.91520198504
 11751.044861568391 5253.828249541124 -999917.15168477118
 11098.404479891537 4047.2991421007728 -999930.21995920024
 10569.680322301825 3197.0105770589917 -999939.02863187355
 10194.097526152927 2637.5447282959935 -999944.56032993819
 9925.4958486086925 2299.5405610496614 -999948.09697572177
 9671.742371317514 2156.6862068921191 -999950.9018467397
 9343.5338163677552 2227.075094039692 -999953.86819210206
 8878.6448930020215 2555.5956342539807 -999957.31838704902
 8254.6004279621284 3182.9166864329768 -999960.86454077892
 7471.3537989300612 4100.1969846940119 -999963.68296908552
 6442.1987700194195 5260.1868321001402 -999965.41365664185
 4888.2125981778108 6787.981684430225 -999965.01372910372
 2700.7631295765182 8715.2119879392994 -999958.37461292534
 -90.449513271164221 10830.742211433637 -999941.34170061955
 -3533.1026034464139 13201.239284672594 -999906.61787356052
 -6306.543524992564 14574.33968975397 -999873.90011509706
 -0 -0 -0
 0 -0 0
 -0 0 -0
 -0 -0 -0
 0 -0 -0
 0 -0 -0
 0 0 -0
 0 -0 -0
 -0 0 -0
 0 0 -0
 -0 0 0
 -0 0 0
 -0 0 -0
 21042.493996692465 11980.153786801569 -999706.80169819971
 18440.031998768874 10204.397237170373 -999777.89308271382
 15541.154429167755 7801.1316723360642 -999848.7960004952
 13367.792084796391 5531.834717839979 -999895.34499338071
 11932.769603343411 3671.1521099262372 -999922.06278878532
 11019.72981837847 2170.6827725930771 -999936.92485627835
 10462.980043016763 991.10331615311748 -999944.77035626117
 10108.907583667049 116.63830884554494 -999948.89688572066
 9879.3000024637113 -493.84976013007082 -999951.07657518738
 9748.1110996268344 -889.07566109028437 -999952.09078958293
 9678.9395727783431 -1113.8299848970703 -999952.53762941714
 9619.811989102318 -1188.5116287696355 -999953.0222252456
 9518.3454468445179 -1106.3462888334639 -999954.08749494283
 9331.3264036336404 -843.24010997764867 -999956.10668352142
 9023.5363092895277 -373.22554857393368 -999959.21741597285
 8548.7405465121828 320.06512518582298 -999963.40762719116
 7810.2324693355122 1260.5830343660855 -999968.70510990894
 6648.0213154198163 2528.5292220054598 -999974.70485635952
 4923.2618164949208 4198.2678118194726 -999979.0678011548
 2519.5024097842643 6310.1309073878638 -999976.91691135499
 -611.34811248011579 8928.0070993836871 -999959.95766966545
 -3997.6200233499385 11683.455847935329 -999923.75504015211
 -6439.5222333317406 13547.524879081711 -999887.49223252968
 0 -0 -0
 -0 0 -0
 0 0 0
 0 0 -0
 0 -0 0
 -0 0 0
 -0 0 0
 0 -0 0
 -0 -0 -0
 -0 -0 -0
 0 0 0
 21296.165656463163 10404.376597981664 -999719.07167760888
 18589.236446117615 8173.8058748502317 -999793.79333234043
 15504.260390709636 5453.3197267617279 -999864.93048496055
 13049.476714343466 3125.3412888648436 -999909.96764674271
 11391.493779967206 1287.5571351370502 -999934.2858738692
 10375.566848531093 -121.72894640039236 -999946.16494821105
 9798.0067545015463 -1195.7837995541001 -999951.28339571808
 9502.7175067503231 -2001.441263225732 -999952.84518464026
 9376.2611627955157 -2582.3652893038657 -999952.70743976661
 9351.9179403292546 -2977.012422797311 -999951.8383541638
 9395.0195381664726 -3221.0674327482297 -999950.67794990318
 9477.5136675147805 -3343.4940429123617 -999949.49761588825
 9568.7692323748397 -3358.7157033485009 -999948.57751996524
 9636.8674270015854 -3264.7578992907283 -999948.23473120527
 9649.624359088637 -3047.3933396269836 -999948.79776094621
 9570.365876885513 -2686.0449011297233 -999950.59540947911
 9346.7120449034355 -2155.3602893493712 -999953.99563978566
 8896.257537895608 -1416.0124940192245 -999959.42493205017
 8104.4982090034828 -401.13632849984992 -999967.07755726937
 6845.1291316255274 972.3073316477404 -999976.09912718623
 4989.9737128821134 2797.8143570832308 -999983.63606469473
 2447.8053415071245 5169.2029453697151 -999983.64366119495
 -701.27938336731654 8036.9367221178809 -999967.4573981649
 -4043.5021935052355 11025.453323194562 -999931.04235693626
 -6521.834705171621 13066.525550248536 -999893.36010502791
 0 -0 0
 0 0 0
 0 -0 -0
 0 -0 0
 0 -0 -0
 -0 -0 0
 0 -0 -0
 0 -0 0
 0 0 -0
 21877.539553325816 9503.4901339301086 -999715.4879956434
 18905.24196373457 6999.5941986319849 -999796.77810410399
 15592.586287472664 4023.039497731666 -999870.33479650109
 12920.535345562452 1516.544027665261 -999915.37634971703
 11052.400038138623 -377.57941112839222 -999938.84907387465
 9880.8707500671808 -1763.76263416609 -999949.62749860098
 9224.7179509824909 -2767.8610966306101 -999953.62068631686
 8913.8627494135235 -3490.636708055888 -999954.17820330989
 8820.6576982174647 -4001.4071935648744 -999953.0912689066
 8857.9589652341419 -4347.1163007967589 -999951.31838646904
 8972.9041318857653 -4562.8400105603805 -999949.33245763904
 9135.8174398765968 -4676.2824918449041 -999947.33322398632
 9326.8381906391533 -4707.6653948904413 -999945.42249859578
 9527.7933143285372 -4667.3158384557628 -999943.71707482787
 9718.8190696707388 -4554.8348631255758 -999942.39735859819
 9875.8480425011203 -4360.4965883983859 -999941.72514949273
 9966.4425656027834 -4066.9802524856491 -999942.06316876819
 9943.5807251353781 -3648.7303691844536 -999943.90441117052
 9739.640738278451 -3067.4384675747638 -999947.86375067418
 9265.0775571054091 -2266.7832089109829 -999954.50898115593
 8413.3328826480029 -1173.0443399540443 -999963.91924748057
 7066.2567066149149 303.0435014296462 -999974.98777759075
 5109.5010932448613 2255.3920191847951 -999984.40298107523
 2471.9195691109876 4733.9719689195135 -999985.73945983918
 -805.36153614534578 7662.4183513270382 -999970.31892841973
 -4372.2890918715266 10644.228116754732 -999933.78955603647
 -7184.7809138252178 12609.830224098192 -999894.68000631954
 0 -0 0
 0 -0 0
 0 0 -0
 0 0 -0
 0 0 -0
 0 -0 0
 -0 0 -0
 23270.456527143157 8923.3335428753162 -999689.3817438999
 19734.208706866692 6340.113607868605 -999785.15890472825
 15990.987617437537 3229.8037882386589 -999866.91948604269
 13010.478441404455 577.52575149756694 -999915.19336128305
 10911.465130859395 -1426.9660597265681 -999939.4500151308
 9564.0116550051716 -2860.1105518625177 -999950.17348300596
 8789.0269306805094 -3855.7324136975799 -999953.94210591807
 8416.5824361577525 -4533.3725643785265 -999954.30379257235
 8308.0015686358729 -4982.9724312079943 -999953.07244674501
 8362.5065562728068 -5267.3494822416105 -999951.16056411876
 8513.3575541976916 -5429.9275460365961 -999949.01801541809
 8720.7241622561851 -5501.7932574686793 -999946.83820743079
 8962.9737867445692 -5505.6316671778222 -999944.6750299955
 9227.7498252638215 -5456.9151425515711 -999942.53370395699
 9505.1500204457461 -5363.5884839115515 -999940.44024715002
 9783.1659118534244 -5225.8698717925408 -999938.48808255419
 10044.133697405345 -5036.6359165788381 -999936.87184587412
 10261.145125709207 -4781.7039481992451 -999935.92005091032
 10394.292054954547 -4438.9826965497405 -999936.1250226415
 10387.525805192889 -3976.1671594626955 -999938.14278802578
 10167.266819036264 -3348.1795283420306 -999942.70654836856
 9642.7333652502221 -2496.2360808672761 -999950.39201886184
 8706.525180864659 -1348.5582064175785 -999961.18815183954
 7237.1648899413995 173.98672240639075 -999973.79624316946
 5107.6335131510441 2140.0749130718032 -999984.66596206464
 2209.4731724719377 4573.2414020379993 -999987.10176250723
 -1463.8588281498969 7367.8341256527128 -999971.78567079001
 -5584.7027479235567 10093.60404642765 -999933.4629126935
 -9072.5601220191911 11665.542805295956 -999890.79591917945
 0 0 0
 0 0 0
 -0 0 0
 0 -0 0
 -0 0 -0
 26006.88406533681 7997.8942534376238 -999629.76929897559
 21509.916883571415 5830.5813042515683 -999751.63305558858
 16973.913590222146 2811.7835513606556 -999851.97911025397
 13457.519377999362 107.7438754306132 -999909.43768095714
 11008.686419835745 -1988.1666516929345 -999937.42605058767
 9429.8353909676352 -3500.6249061553021 -999949.41063524084
 8501.6972547374698 -4539.6896307348179 -999953.55510235846
 8035.1648965938575 -5222.6769999069993 -999954.07883064274
 7879.2874187449834 -5648.0548494748864 -999953.00704892643
 7920.657719487027 -5890.4434110466646 -999951.28174212179
 8080.1783670122268 -6003.5905502944997 -999949.33252543455
 8307.452280775924 -6025.6370450843142 -999947.33758073661
 8574.0378668184185 -5983.8107837099651 -999945.33844763902
 8866.2671964232613 -5897.4398682095352 -999943.30314723472
 9178.315058673239 -5779.3689207604875 -999941.176983707
 9506.3316250180414 -5636.3784799504519 -999938.92858347413
 9843.8662384984564 -5469.307583328442 -999936.5904756349
 10178.232457404343 -5273.1683443387183 -999934.2964813516
 10487.454837885181 -5037.0522458828709 -999932.31840744882
 10737.668819762619 -4743.494049533575 -999931.0984925509
 10881.088568380954 -4367.2397476122469 -999931.26220183447
 10854.546748875318 -3873.8814589558833 -999933.58372309851
 10578.114946003858 -3219.0273649312326 -999938.86880499509
 9952.8412214547807 -2348.445061880424 -999947.71151166281
 8857.4287476289937 -1200.4767047995606 -999960.05160789401
 7145.2099571329454 286.78308319590298 -999974.43153819256
 4647.3660715609185 2159.3483438752278 -999986.86951545847
 1203.0800211675974 4407.1817965450218 -999989.56461908878
 -3231.6135238296206 6865.3587718319013 -999971.21134708996
 -8274.7130676882025 8999.6715658213652 -999925.26472499687
 -12507.557862184003 9654.9102451851395 -999875.16406023467
 0 0 0
 -0 -0 -0
 0 -0 -0
 0 0 -0
 23374.860917456241 4867.5776941073636 -999714.92064712173
 18656.125894363067 2467.5156939841331 -999822.91448681732
 14434.372829697351 -97.474601670622619 -999895.81426252367
 11447.917392813904 -2211.4498761140817 -999932.0250281078
 9518.3260052462701 -3788.0964618198636 -999947.52452078892
 8370.8073991309338 -4890.8019344411168 -999953.00371563702
 7771.6907043347492 -5616.3973903649585 -999954.02739523456
 7541.9368179165067 -6057.8128804777652 -999953.20995141554
 7549.5108931618543 -6292.3948846388921 -999951.70415970066
 7700.8554029586421 -6380.0879258521072 -999949.99440178077
 7933.7920614969053 -6365.5465899044166 -999948.26604186732
 8210.9966872723526 -6281.4288826218508 -999946.56016438897
 8513.613629413223 -6151.4281869387733 -999944.83763567184
 8835.0038974533236 -5992.4316464611356 -999943.01511090819
 9174.845571390586 -5815.7771908348341 -999940.99773156981
 9533.9481224143055 -5627.8554316882155 -999938.71366021188
 9909.9582220703087 -5430.3702442454241 -999936.14986510365
 10293.950094362006 -5220.4151016938276 -999933.38871027832
 10667.775568570578 -4990.3441732650808 -999930.64510967513
 11002.062948772824 -4727.3473974666149 -999928.30082834186
 11254.672260193071 -4412.7469642458218 -999926.92733846558
 11369.248852155897 -4021.192605833221 -999927.28245136142
 11273.174742541632 -3520.0143620606277 -999930.26008322951
 10873.999593476239 -2868.9760255032984 -999936.76055508957
 10053.644470398509 -2020.9337534632352 -999947.41864741407
 8660.6903321758837 -924.45202253998616 -999962.06819630344
 6504.177155734149 469.18882183363218 -999978.73754464218
 3361.8433007259173 2187.8014836559837 -999991.95573478972
 -955.46051801438227 4194.1138798742004 -999990.74820918276
 -6335.6062542547361 6285.6742435026154 -999960.17440330866
 -11353.661500385739 7891.5912715480372 -999904.404009572
 -0 0 -0
 -0 -0 -0
 0 0 -0
 27062.834709767427 3856.7988652236431 -999626.29421198473
 21674.268287061848 2143.0197387665407 -999762.78864569659
 16313.576133984243 -197.81743176494092 -999866.90519387845
 12443.981066440923 -2247.0571022631084 -999920.04583846463
 9942.8447018701863 -3839.6523512196727 -999943.19684122887
 8445.2027404942328 -4991.4034253629743 -999951.88106354245
 7639.7025874545889 -5770.1824320821652 -999954.16891929379
 7295.1166537934459 -6253.2409202041617 -999953.83806003851
 7245.8753529350315 -6511.4453428697834 -999952.54805911484
 7376.0676877443375 -6604.1335614257769 -999950.98832161189
 7607.5133136407858 -6578.4842287271513 -999949.4233642196
 7891.0978945102797 -6470.8238604529733 -999947.92815055442
 8199.8287423619313 -6308.591786610451 -999946.48080698086
 8522.6882596626365 -6112.2346155609812 -999945.00067395344
 8858.9102351382389 -5896.6852019276475 -999943.37280321785
 9212.6843682536928 -5672.3460148681761 -999941.4737560486
 9588.4385143379986 -5445.6600132538015 -999939.20146870799
 9986.8762830728301 -5219.3893268616439 -999936.50812297116
 10401.836081942078 -4992.6902495463373 -999933.43520966254
 10817.965588991761 -4760.9998652992717 -999930.14981087437
 11209.067737495849 -4515.7331501967574 -999926.9798113124
 11536.847170949119 -4243.8095846268488 -999924.4427643338
 11749.547519299425 -3927.0790640312307 -999923.26014705596
 11779.748115832976 -3541.720650234176 -999924.34401266731
 11540.388471831611 -3057.676352597221 -999928.73248509166
 10918.196553717649 -2438.2399203137825 -999937.42202705133
 9764.3529769981742 -1640.1447603655006 -999950.98246669373
 7884.5336172795323 -615.14430148282236 -999968.72737457452
 5037.5424960591936 684.19228238936944 -999987.07743976417
 973.72052033178556 2287.4793312912093 -999996.90964855335
 -4387.3690070870507 4154.3933293320079 -999981.74583802326
 -10382.543052100798 5974.0687099103634 -999928.25407767144
 -14893.803378766364 6582.8704389893637 -999867.41142898449
 -0 -0 0
 0 0 -0
 24731.809834583411 1530.7676605377208 -999692.95002649457
 19244.340416023399 -252.27274160639109 -999814.77870674431
 14297.723952393226 -2190.8063543795306 -999895.38225621346
 10921.074897832092 -3763.5716078806631 -999933.28060017515
 8852.0023024858201 -4933.0105661368207 -999948.65241270803
 7701.4813037039612 -5750.2095093581574 -999953.81007140898
 7161.0513251432212 -6277.947200512267 -999954.6523332278
 7010.5143122867958 -6576.1583674480862 -999953.80234798999
 7097.4101664167183 -6697.7591537001936 -999952.38226189988
 7318.7583256596354 -6687.3510096158689 -999950.85634897323
 7608.0796551909189 -6581.2849870768532 -999949.4006257914
 7926.1789636969079 -6408.46731045863 -999948.05226759985
 8254.0515800928733 -6191.4873338947509 -999946.7666416585
 8586.8651951459142 -5947.7647497163698 -999945.44343209162
 8928.5457616985841 -5690.5189604563511 -999943.94796135556
 9286.8373788162226 -5429.4837254399527 -999942.13600486622
 9668.9282704351008 -5171.3597115019693 -999939.88262536819
 10077.767654721019 -4920.0442061338772 -999937.11390472297
 10509.189253976903 -4676.66955092019 -999933.84066303901
 10949.834600330989 -4439.4780243741052 -999930.1936420846
 11375.755489223169 -4203.5459908332723 -999926.45848989941
 11751.368519625083 -3960.3810894805711 -999923.1074035354
 12028.250908993567 -3697.407321856178 -999920.82204500888
 12143.033166085015 -3397.3346709738653 -999920.49927114742
 12013.521967785082 -3037.3655211149467 -999923.2219028722
 11532.203586271045 -2588.1762439507083 -999930.15237274196
 10556.803717533163 -2012.694917504582 -999942.24980967701
 8899.3206065672148 -1265.1064869708239 -999959.59998307843
 6320.313360086956 -292.03549450264131 -999979.98397682968
 2550.8180410425666 956.75030386445735 -999996.28897120291
 -2591.3959479512682 2482.0628409621499 -999993.56199482328
 -8805.6123951842128 4083.6711205517313 -999952.89130064764
 -14159.2636010272 5118.6840531796934 -999886.65073989297
 0 0 0
 -0 -0 0
 22343.489335747374 -486.88679255270642 -999750.23452138004
 17159.97654546866 -2115.8582247767977 -999850.51800203207
 12737.78500531188 -3636.9899934945747 -999912.25671903102
 9816.3465197817404 -4799.2722180934579 -999940.30138162756
 8099.9804881567961 -5629.1354506405514 -999951.35039169271
 7217.2485829607213 -6185.2660010353438 -999954.82588334358
 6876.3837464582512 -6520.5897208166107 -999955.09762002015
 6870.3731929015657 -6680.1786553663833 -999954.08553859254
 7057.9533297346088 -6702.5002290422708 -999952.62977076799
 7346.0158993085397 -6620.1528384871845 -999951.10361797293
 7676.7114122736739 -6460.3454107186462 -999949.6647527148
 8018.1528554807737 -6245.4243525513475 -999948.35061589209
 8357.2773315706017 -5993.5090515380134 -999947.11548403988
 8693.9061716700453 -5719.1620345563069 -999945.85212455422
 9035.4962621629438 -5434.0032028598871 -999944.41416335118
 9392.4360679670135 -5147.1910532402353 -999942.64263955178
 9773.9106364393301 -4865.7376147677141 -999940.39585784078
 10184.462291207719 -4594.6433819670692 -999937.58104195248
 10621.330601899252 -4336.8658029953194 -999934.18729997019
 11072.592170991493 -4093.1357278120868 -999930.31954358122
 11515.952079743087 -3861.6487959576848 -999926.23253731756
 11917.884846932406 -3637.6480037088468 -999922.36275511712
 12232.6021533601 -3412.9025685396227 -999919.35451846092
 12400.165453586416 -3175.0458724658015 -999918.07413429185
 12342.911251623262 -2906.6867083804532 -999919.59862491651
 11959.400205164686 -2584.1601510828077 -999925.14462985983
 11115.463616442024 -2175.7940869228523 -999935.85413699539
 9633.284747741407 -1639.7791510431509 -999952.254334828
 7283.3789216070591 -922.56485463365698 -999973.05026964273
 3795.7109456839808 38.592215435494879 -999992.79551857652
 -1058.9613173362043 1297.6624019778831 -999998.59733562556
 -7142.3895019583179 2833.716347827818 -999970.47772614891
 -12755.799951531264 4309.1187248727865 -999909.35642357683
 -0 0 -0
 28357.775774965416 -608.72201685412392 -999597.65206337045
 22001.853321749881 -2025.5807868330057 -999755.8779386516
 15970.489940441532 -3531.5875311386417 -999866.22672264115
 11725.414442842297 -4667.8173476613047 -999920.35989740316
 9094.1760578896483 -5479.9449982732367 -999943.63149361778
 7626.9045977384776 -6036.1755676572284 -999952.69633656857
 6936.7376195475244 -6389.0828273228854 -999955.5296571058
 6739.42374556087 -6578.5816364593811 -999955.65023216396
 6837.2198019656407 -6636.534698108243 -999954.60338586406
 7097.0319759866306 -6589.5856088048795 -999953.10364968434
 7432.8045160969104 -6460.4928067143182 -999951.50654905266
 7792.7646042586321 -6268.7287469630483 -999949.98667919368
 8150.1437920602948 -6030.8547997118303 -999948.60065233032
 8496.0405425296685 -5760.8825948910689 -999947.31337547349
 8833.5147590352117 -5470.6645938261026 -999946.01896597585
 9172.4507537397476 -5170.2687005096104 -999944.5656978864
 9525.0069258544991 -4868.2808766360668 -999942.7854054292
 9901.677101134188 -4571.9808189940177 -999940.52512235753
 10308.042192273959 -4287.3675723975975 -999937.67943080387
 10742.305086699693 -4019.0276681999699 -999934.22298570571
 11193.595328076797 -3769.8671530845318 -999930.24332964304
 11640.919529660105 -3540.7322170045218 -999925.97336396424
 12052.440413301743 -3329.9474859496854 -999921.82200901338
 12384.611678353527 -3132.7749741947796 -999918.40022800746
 12580.506718912246 -2940.7629353565871 -999916.53789906565
 12566.586744773806 -2740.9005244000127 -999917.28075971431
 12247.135345554609 -2514.4471336221341 -999921.83956119302
 11495.909049416878 -2235.2910649892733 -999931.42142298038
 10145.597904874823 -1867.7732163681835 -999946.78771740873
 7978.8272892971772 -1364.2614626038132 -999967.23801620095
 4733.1920307461869 -663.81477389901966 -999988.57805634255
 157.90589958020038 302.85057257129125 -999999.94167362701
 -5770.0599207513005 1576.8527972005147 -999982.10981185397
 -12230.647522275371 2969.1007589284827 -999920.794714196
 -16994.464189578452 3430.6966486779274 -999849.69795835519
 27097.482305811438 -2604.8225101989206 -999629.40200475114
 20842.46370757624 -3598.5895250117751 -999776.29590825387
 15047.655006731378 -4616.9700655280676 -999876.11815975094
 11067.235017414328 -5374.3027450985765 -999924.3137253304
 8659.9278050279099 -5896.6541209462657 -999945.116054171
 7368.3626847914165 -6236.5587853059524 -999953.40519739361
 6811.1803918845135 -6432.9207743864026 -999956.11171289894
 6712.224571370517 -6513.361748472641 -999956.26012343017
 6881.0204228361399 -6498.7932735142313 -999955.20761878579
 7190.4201161382543 -6406.2801887059104 -999953.62764115084
 7559.2539407227505 -6250.4770107551522 -999951.8934513788
 7939.8003386715372 -6044.2739187014331 -999950.21192226256
 8308.6081496539009 -5799.1147991109628 -999948.66733155947
 8659.3885864067524 -5525.2372124966914 -999947.24197982345
 8997.1590136863015 -5231.911498898191 -999945.83764909511
 9333.1872404048572 -4927.671146106125 -999944.30328544369
 9680.5792807293783 -4620.4796024395528 -999942.46712150041
 10050.496807613785 -4317.7861861216434 -999940.1703283909
 10449.084624434525 -4026.4344949696674 -999937.30026225618
 10875.157592993452 -3752.4229188008226 -999933.82294508186
 11318.645107291655 -3500.5348982125142 -999929.81480119983
 11759.644125728737 -3273.8797202937894 -999925.49346519483
 12167.79959834661 -3073.3786416746075 -999921.24639726465
 12501.543064929045 -2897.2184898128376 -999917.65538269107
 12706.588599193245 -2740.2581390963928 -999915.51322674355
 12712.948181165066 -2593.3350101907213 -999915.82423825446
 12429.731529585684 -2442.3888151478041 -999919.76503666455
 11737.193155952831 -2267.3327075215111 -999928.54619678366
 10476.357291059428 -2040.749297995178 -999943.03901782958
 8439.0425579588555 -1726.9781924849433 -999962.89936528541
 5368.0729495741407 -1283.7253941309871 -999984.76780495024
 995.94338446414042 -673.27604214713153 -999999.27739781188
 -4802.9944523422864 94.787100172300967 -999988.46106327465
 -11565.139193463314 844.91000818144869 -999932.76458095631
 -17114.656209092471 1148.0667435714188 -999852.87441983039
 25962.523463695565 -4251.4779543113063 -999653.87625447672
 19893.919776392544 -4812.0786973997592 -999790.5159854939
 14402.674174853255 -5402.8989690143935 -999881.67882972211
 10671.166291468846 -5844.0870002621568 -999925.98368934949
 8439.6268961737442 -6132.5726220688748 -999945.58064471104
 7271.1940480859157 -6300.6471747269215 -999953.71471998375
 6801.3782683438194 -6374.9852313256442 -999956.54946450121
 6764.9356678367676 -6373.2959258618575 -999956.80743942701
 6978.4120675736813 -6307.622941445793 -999955.75685019372
 7319.3756002622895 -6187.1334319548059 -999954.07200566831
 7710.010301834749 -6019.6505975782266 -999952.15862951602
 8105.078867691278 -5812.3576623496328 -999950.26086048561
 8482.9585113532266 -5572.1206293427622 -999948.4941168651
 8838.6361661397186 -5305.6849984172422 -999946.86269692355
 9177.9232316611233 -5019.8485475174184 -999945.28192582319
 9512.5046319306639 -4721.6050342282433 -999943.60776072182
 9855.6541344834131 -4418.2181372046452 -999941.67101390124
 10218.61099896427 -4117.1721618784595 -999939.31259984022
 10607.655073912891 -3825.9738479933949 -999936.41776762344
 11021.9305379814 -3551.8023377453028 -999932.94862574141
 11451.981051266619 -3301.0409766787038 -999928.97510696808
 11878.868073747275 -3078.7375068706961 -999924.70409958903
 12273.581834616391 -2888.0476371645968 -999920.50602525135
 12596.321959858267 -2729.6987487596143 -999916.93725920271
 12795.055203310947 -2601.4857277570482 -999914.75578388816
 12802.65668288501 -2497.7798343108561 -999914.92291982484
 12531.866728709221 -2409.0158366736327 -999918.57116416877
 11867.44381770449 -2321.1649615727601 -999926.88531234849
 10655.484797049161 -2215.3737693676107 -999940.77462757844
 8691.8306378864636 -2068.4809097516008 -999960.08593687788
 5716.9567719272709 -1856.431688631106 -999981.93487015227
 1440.2683338393633 -1565.3422255347286 -999997.73766286275
 -4337.5869106777918 -1217.6062111458236 -999989.8513359559
 -11288.0008948298 -907.87800993517499 -999935.87634073664
 -17174.979107267096 -771.15355789099669 -999852.20178527152
 25270.686938599269 -5507.7275859946831 -999665.47270498925
 19346.011077984374 -5773.4494622462935 -999796.17879679729
 14066.17177331267 -6025.8428966688734 -999882.90915938176
 10510.303271757813 -6191.4982795675505 -999925.59666916716
 8396.7176668334014 -6273.6988025407554 -999945.06640902965
 7302.998548317828 -6293.1267734499543 -999953.53030409198
 6881.113741453566 -6265.0941509248687 -999956.69849696872
 6876.7618416341829 -6197.5643770273209 -999957.1492530898
 7112.8440905361049 -6094.2130077729089 -999956.13304622518
 7470.527559521378 -5957.0300551690807 -999954.35146355769
 7874.0629964478539 -5787.7248558627134 -999952.24954640772
 8279.3769047335118 -5588.3538627888602 -999950.10986507428
 8665.4040063749926 -5361.5979618999372 -999948.08067254233
 9027.2240395414974 -5110.9313859635868 -999946.19235562242
 9370.3921998074729 -4840.7585747272888 -999944.37985642126
 9706.1093142812442 -4556.5111735698465 -999942.51317158435
 10047.090858268746 -4264.6525865062576 -999940.43257766194
 10404.096650974931 -3972.5459285455722 -999937.98490292509
 10783.154572585407 -3688.1578053106559 -999935.0584260294
 11183.486895152162 -3419.6108507509084 -999931.61560303473
 11596.108592696732 -3174.6238270533263 -999927.72340257815
 12002.949001931063 -2959.9045251111379 -999923.58117031085
 12376.239103646691 -2780.5615174238246 -999919.54535517341
 12677.743917302032 -2639.5919646089396 -999916.15016631666
 12857.292771906379 -2537.4774440477681 -999914.12192787754
 12849.908956968027 -2471.8921036680031 -999914.38112931722
 12570.776502248229 -2437.5128078950243 -999918.01369384397
 11907.316306438583 -2425.9303871498805 -999926.16261408757
 10708.113249061567 -2425.7538796298354 -999939.7241977941
 8769.9997071254529 -2423.2271580656638 -999958.60668093525
 5829.5768607057544 -2404.1828709959786 -999980.11777152237
 1580.9319603963963 -2358.7621756373014 -999995.96843944083
 -4208.1939015543085 -2289.5857472873995 -999988.52438475157
 -11241.821839687967 -2217.3991158524768 -999934.35013649054
 -17235.386920959809 -2166.6071255086458 -999849.11224206653
 25052.248227304121 -6649.2114059070054 -999664.02998529316