# OOMMF OVF 2.0
#
# Segment count: 1
#
# Begin: Segment
# Begin: Header
#
# Title: Oxs_TimeDriver::Magnetization
# Desc: Oxs vector field output
# Desc:  MIF source file: /mnt/gpfs/work/plgrid/groups/plggspinsym/MF/switching-obrazki/p-ap/Anisotropy.mif
# Desc:  Iteration: 3400, State id: 23873
# Desc:  Stage: 0, Stage iteration: 3400
# Desc:  Stage simulation time: 5.0035e-10 s
# Desc:  Total simulation time: 5.0035e-10 s
# meshunit: m
# meshtype: rectangular
# xbase: 1.0000000000000001e-09
# ybase: 1.0000000000000001e-09
# zbase: 3.4999999999999998e-10
# xnodes: 35
# ynodes: 35
# znodes: 5
# xstepsize: 2.0000000000000001e-09
# ystepsize: 2.0000000000000001e-09
# zstepsize: 6.9999999999999996e-10
# xmin: 0
# ymin: 0
# zmin: 0
# xmax: 7.0000000000000005e-08
# ymax: 7.0000000000000005e-08
# zmax: 3.4999999999999999e-09
# valuedim: 3
# valuelabels: Magnetization_x Magnetization_y Magnetization_z
# valueunits: A/m A/m A/m
#
# End: Header
#
# Begin: Data Text
 -0 0 -0
 0 0 -0
 -0 -0 0
 -0 0 0
 0 0 0
 -0 0 -0
 0 0 0
 0 -0 0
 -0 0 0
 0 0 0
 0 0 0
 -0 -0 0
 0 0 0
 1272.0507640785995 -35095.122246760802 -999383.16689913208
 4090.2525284179064 -34820.826359290841 -999385.20095402142
 6801.1889936965281 -34582.228848059123 -999378.71363971557
 8884.7778315845171 -34515.069846605002 -999364.68352467159
 10562.107398140366 -34620.445021592961 -999344.71864007821
 12157.657214382933 -34873.918856326411 -999317.76785698137
 14004.495854058569 -35253.635195051371 -999280.26864409144
 16382.173459903574 -35719.475146551784 -999227.57342258352
 18972.174198070628 -36119.494348328466 -999167.37273302686
 0 0 0
 -0 0 -0
 -0 0 -0
 -0 0 0
 0 -0 0
 -0 0 0
 -0 -0 0
 0 0 0
 0 -0 0
 0 -0 -0
 0 -0 0
 -0 -0 0
 0 0 -0
 -0 -0 -0
 -0 -0 -0
 -0 -0 -0
 -0 0 -0
 0 0 -0
 0 0 -0
 -0 -0 0
 0 0 0
 0 0 -0
 0 0 0
 -3581.9703219101293 -32661.405291823925 -999460.05527633592
 -1068.5432745073049 -31886.773263433497 -999490.91636998719
 800.87805840532371 -30649.745446729903 -999529.86533589184
 2371.3643947629143 -30166.862024326678 -999542.0636804197
 4870.2772929120556 -29092.998793028532 -999564.84422988736
 7215.2426461316409 -28450.511909157223 -999569.16151193087
 9084.2338832324604 -28205.087463832395 -999560.87845408998
 10632.883473570815 -28235.759971865675 -999544.73819226748
 12122.306903719484 -28479.636018598168 -999520.86521872075
 13831.825412990362 -28937.020082790033 -999485.53239877999
 16004.642319591172 -29674.133379740542 -999431.48701268341
 18562.345125324409 -30748.227299779122 -999354.78477934434
 20638.653509987718 -31423.238826217566 -999293.06314162153
 22411.522841306065 -33259.107903169104 -999195.45404561318
 24588.473996776182 -34474.768128237272 -999103.04639161914
 -0 0 -0
 0 -0 0
 -0 0 -0
 0 -0 -0
 -0 0 0
 -0 0 0
 -0 0 -0
 -0 0 0
 -0 0 -0
 -0 0 0
 0 -0 -0
 -0 0 -0
 -0 0 0
 -0 0 0
 -0 -0 0
 0 0 -0
 0 -0 -0
 -0 -0 0
 -8621.8017603029366 -29968.809631543772 -999513.64922329807
 -5723.3357943912688 -29003.97080141645 -999562.91102918342
 -2798.1038202063387 -28154.286535436164 -999599.67325159337
 130.59553861092184 -26458.521421654059 -999649.90351071674
 2355.1395082090035 -24810.19563930091 -999689.405520653
 4171.2028912643527 -23415.743259745715 -999717.11200420768
 6092.1837753267246 -22203.614311007605 -999734.90726710949
 7875.5863621347598 -21453.731743448512 -999738.82215993432
 9384.2631491627853 -21120.634631400189 -999732.89152548858
 10696.489985415095 -21095.858891783791 -999720.23578579701
 11979.615237766418 -21320.039061432872 -999700.9276544532
 13419.636569183818 -21803.468058693903 -999672.20734346926
 15160.27490934372 -22628.992064067123 -999628.97856296552
 17167.685400053291 -23898.29156387737 -999566.97736486502
 19167.878788176276 -25496.711497686338 -999491.12558619818
 21333.210500733832 -27491.902954238274 -999394.36130172666
 24132.965946548054 -29438.038147821575 -999275.23829254881
 27153.933622130528 -30577.464102938036 -999163.49141563324
 29841.105888520491 -32093.975498832006 -999039.28107759124
 -0 0 -0
 -0 -0 -0
 0 0 -0
 -0 0 0
 -0 0 -0
 0 0 -0
 0 -0 -0
 -0 -0 -0
 -0 -0 0
 0 0 0
 0 0 0
 0 0 -0
 -0 0 0
 0 0 0
 -0 -0 -0
 -11152.775562390972 -26983.635160076425 -999573.65863192035
 -7848.5964883200986 -26114.164693361232 -999628.15583372372
 -4003.7175916352689 -24075.744418636688 -999702.12002182659
 -736.106513519175 -22075.629900531672 -999756.03259580035
 1968.1675785727114 -20169.164636906462 -999794.64447166945
 4054.6253244550053 -18562.577930118921 -999819.47906312917
 5716.8169907658921 -17262.947305671289 -999834.64065505133
 7202.7713259018583 -16257.938629551327 -999841.88725855271
 8531.2514816883613 -15612.442592228375 -999841.72216629412
 9693.2993376402246 -15300.808678260153 -999835.94914452941
 10745.706014986237 -15262.74191009807 -999825.77407847682
 11791.590744439765 -15461.837015065863 -999810.92711764027
 12945.1760620561 -15907.302180182451 -999789.66795725119
 14293.38210039033 -16652.562309701723 -999759.16669798701
 15851.681845884394 -17758.081655357477 -999716.64721488871
 17594.096123811549 -19214.99106217832 -999660.55833971291
 19662.58146479481 -21013.882833188032 -999585.81403419969
 22294.882001256068 -23079.641045982185 -999485.00159118883
 25489.734609421317 -25269.141522500537 -999355.66437392891
 29208.016247299274 -27526.951783989163 -999194.25474348036
 32632.190459209323 -28511.186489775839 -999060.68503909174
 -0 -0 -0
 0 -0 0
 -0 0 -0
 -0 -0 -0
 0 -0 -0
 0 -0 -0
 0 0 -0
 0 -0 -0
 -0 0 -0
 0 0 -0
 -0 0 0
 -0 0 0
 -0 0 -0
 -12372.506384132825 -25186.448227097346 -999606.20441825897
 -9422.0743669946878 -23698.55613403297 -999674.74858164985
 -5370.9430877078075 -21175.174348013024 -999761.35400488437
 -1606.170443260836 -18679.337640839389 -999824.23583438247
 1408.2395927918865 -16581.763172052222 -999861.52140751737
 3741.8992933771719 -14860.051664522371 -999882.58163356641
 5520.9684875125204 -13495.588469039896 -999893.68834833335
 6911.3859315004793 -12442.683661499059 -999898.70105316443
 8068.991671372426 -11668.869793131813 -999899.35936130991
 9068.611273486471 -11169.585457693534 -999896.49496849114
 9952.4172566075831 -10922.520527298901 -999890.81800768699
 10773.452934879277 -10895.603147591459 -999882.60238085454
 11600.93321737065 -11069.6961099943 -999871.43182337121
 12508.316705644898 -11451.019118482132 -999856.19774762588
 13557.173134588438 -12069.460010042278 -999835.25202488457
 14788.049411598602 -12960.448254959401 -999806.65149599325
 16246.418396325971 -14141.616637498757 -999768.0073737955
 18046.188418357975 -15629.891550435374 -999714.98016869335
 20350.052033477361 -17443.892034609034 -999640.72846844303
 23292.70697618854 -19603.932799180842 -999536.46037577186
 26979.814243161592 -22128.004360090075 -999391.03510410001
 31123.824808679488 -24685.773338627521 -999210.64852410008
 34394.444250143817 -26351.627768994 -999060.86597296386
 0 -0 -0
 -0 0 -0
 0 0 0
 0 0 -0
 0 -0 0
 -0 0 0
 -0 0 0
 0 -0 0
 -0 -0 -0
 -0 -0 -0
 0 0 0
 -13134.672103434506 -24013.794443713374 -999625.33884708537
 -10327.953216178599 -22251.581169528938 -999699.05497495597
 -6370.5479792206897 -19357.056467483832 -999792.33868006757
 -2487.835277417711 -16502.967064799523 -999860.72167761973
 776.43243118230009 -14114.402166069001 -999900.08541062486
 3319.3689604620217 -12239.575765416119 -999919.58405403129
 5245.9205838191538 -10791.968445407649 -999928.00427545852
 6698.6373299681281 -9690.317959611426 -999930.61059043638
 7816.7259086328722 -8869.6427964409213 -999930.11167417746
 8716.3395813700117 -8286.3316057827924 -999927.67845120735
 9474.9092681596485 -7915.40550845286 -999923.78332050738
 10146.244115682774 -7735.1825482192116 -999918.60702823731
 10779.413805289903 -7726.1314216689698 -999912.05169818271
 11425.886087363569 -7877.9218596544406 -999903.68909925118
 12137.7579403286 -8194.5631764771369 -999892.75623265177
 12963.629903621631 -8693.4332202654259 -999878.17683884199
 13949.705696919749 -9398.2273861381836 -999858.5295095339
 15154.55194564778 -10332.832138388547 -999831.77191731951
 16671.557094061594 -11528.405244997262 -999794.55642475199
 18627.863102175139 -13031.786815313211 -999741.55422721489
 21165.910755863169 -14912.289854485147 -999664.75772289315
 24418.934454160306 -17255.989607229032 -999552.87327024306
 28369.428689662516 -20064.106214058913 -999396.1212440508
 32565.936598807548 -23040.631875214891 -999203.9777023677
 35767.521270320794 -25104.14779041001 -999044.77686733042
 0 -0 0
 0 0 0
 0 -0 -0
 0 -0 0
 0 -0 -0
 -0 -0 0
 0 -0 -0
 0 -0 0
 0 0 -0
 -14065.763462422588 -22871.765265741415 -999639.45332897292
 -11143.372462228101 -21141.93443621284 -999714.38114016491
 -7136.5696256186111 -18167.484613573284 -999809.48779094603
 -3206.9741017796996 -15143.351937571739 -999880.18992737576
 163.90858599156783 -12557.53862437484 -999921.13756919501
 2856.2415931749524 -10511.502365290533 -999940.67334116681
 4917.2300726792537 -8951.0811760205743 -999947.84813718789
 6463.3458321106336 -7779.1130816549439 -999948.85397220077
 7620.2030748512534 -6909.7907729104236 -999947.09224867111
 8500.32510016577 -6278.6989355699043 -999944.15964736161
 9194.9486982328872 -5841.8455783510299 -999940.66111878632
 9771.7239063232519 -5570.8035364106063 -999936.73777887423
 10281.580004992673 -5445.6521613783234 -999932.31470191921
 10767.738713950665 -5452.5448844637094 -999927.16012581193
 11271.086254147693 -5585.0924443441018 -999920.8815486551
 11831.797058177388 -5845.9229677919129 -999912.91308944928
 12489.972363010394 -6246.2420249322759 -999902.48777115124
 13288.900554592066 -6803.6814470067629 -999888.55131000339
 14283.373203645662 -7541.627674499674 -999869.54604185466
 15549.764410809574 -8493.7407316834669 -999843.01827594463
 17189.151909744091 -9710.9790132414728 -999805.095977825
 19323.102819788834 -11268.340178890738 -999749.78980094264
 22079.254965100194 -13263.808922203005 -999668.23390215903
 25539.393587379738 -15784.014430413898 -999549.20052174001
 29635.644527455963 -18810.617855595261 -999383.75473555352
 33943.12821217857 -21971.782326485711 -999182.21803060966
 37271.16421680816 -24128.151011778889 -999013.86008737457
 0 -0 0
 0 -0 0
 0 0 -0
 0 0 -0
 0 0 -0
 0 -0 0
 -0 0 -0
 -15831.196025739948 -21190.065101244389 -999650.11597728531
 -12459.624689994112 -19848.546890441707 -999725.35875555477
 -8125.8799329139829 -17096.530156858898 -999820.82331381331
 -3977.8314213077806 -14142.764978533081 -999892.07370393001
 -452.00577634542066 -11523.785220502559 -999933.49682114855
 2373.6593006091061 -9394.671513641455 -999953.05184227286
 4556.7062557077816 -7743.7747641369633 -999959.63437555893
 6201.9764567495195 -6498.1177570746631 -999959.65416292928
 7424.9995800282204 -5573.4903767839842 -999956.90186440351
 8332.7714547888481 -4897.6041151364361 -999953.28810590645
 9016.17274602416 -4415.7584808487691 -999949.60358312691
 9548.1862845269516 -4089.5397979174063 -999946.05244628922
 9985.2327987436383 -3893.1632394017793 -999942.5675537301
 10371.465076975517 -3809.4857417980588 -999938.95840223192
 10743.84370958509 -3827.8476684577563 -999934.95658696257
 11135.969037166611 -3943.7130661985593 -999930.21622553968
 11580.441722053771 -4158.8556281861438 -999924.29577912856
 12110.879685329477 -4481.1936976161496 -999916.6192719728
 12765.118977409038 -4924.4797433930307 -999906.3962375425
 13590.339962995249 -5509.159378938748 -999892.47012997721
 14648.777199134427 -6265.6335298494587 -999873.0695258471
 16021.312581669497 -7239.1924764761507 -999845.44387392642
 17807.97114654466 -8494.879297053305 -999805.33764797065
 20123.280492389193 -10118.139160305545 -999746.30624081683
 23079.686020497797 -12201.88716015466 -999659.16293651122
 26752.535635882195 -14807.015605293558 -999532.41774637578
 31098.392868182636 -17861.952593811937 -999356.71339644922
 35731.689624763501 -20933.595622349396 -999142.14750999247
 39480.18864969744 -22844.40056532171 -998959.18238284159
 0 0 0
 0 0 0
 -0 0 0
 0 -0 0
 -0 0 -0
 -18967.043797748091 -18267.511852599961 -999653.2145000532
 -14955.951245777327 -17903.279461848175 -999727.8590230667
 -9910.2080477435557 -15775.000174282513 -999826.45351378468
 -5213.5001812912651 -13155.095819301348 -999899.87642255693
 -1312.9308486495495 -10687.295889228952 -999942.02727916336
 1763.7572162912134 -8600.3874068951354 -999961.46050582035
 4122.1456615182151 -6933.5935621493772 -999967.46606850147
 5894.811577860276 -5648.4660258982631 -999966.67245864542
 7207.8919710322534 -4680.7934503831566 -999963.06755100144
 8171.8550560216963 -3965.1592941780641 -999958.74829750613
 8879.1929458385184 -3445.95234421538 -999954.64164384571
 9404.9901133455023 -3080.367668564661 -999951.02754884691
 9808.8323240373011 -2837.542107289707 -999947.86622264888
 10137.500838774788 -2696.2493994325887 -999944.97914431279
 10428.338848007659 -2642.4944941365857 -999942.1318114961
 10712.669145400008 -2667.9050663196431 -999939.05864424468
 11018.646184027377 -2769.0198483266909 -999935.45889989857
 11373.501832646445 -2947.0724012177743 -999930.97672805621
 11805.684626761478 -3207.9524945341345 -999925.1646254767
 12347.544464812194 -3562.4654367014268 -999917.42008312955
 13038.848996709559 -4027.4098880839847 -999906.87985753687
 13930.686896894667 -4627.8895795369272 -999892.2534956556
 15088.934175614611 -5400.5485726135712 -999871.57082325278
 16596.863656474961 -6396.7031634731366 -999841.80063918454
 18556.314952028271 -7683.1723406535075 -999798.29567677574
 21085.934783747416 -9336.7251468122358 -999734.06909929204
 24313.762417112852 -11425.737858726787 -999639.08160470997
 28351.369778116758 -13964.58348130764 -999500.47035501571
 33205.280869506154 -16806.831756615295 -999307.22989913484
 38511.093029794974 -19400.229048435987 -999069.83080589457
 42941.355485415828 -20445.896503603712 -998868.36235073488
 0 0 0
 -0 -0 -0
 0 -0 -0
 0 0 -0
 -17936.674356182015 -15755.680596651477 -999714.97650179081
 -12902.506235779783 -14240.343454850599 -999815.35192810651
 -7390.1828456759449 -12067.874306688052 -999899.87079068355
 -2782.4890748938733 -9873.1646919285231 -999947.38780273544
 789.11481041412924 -7932.5510082802093 -999968.22546134773
 3475.9911813976928 -6329.3517765861561 -999973.92805582436
 5465.7456516158418 -5058.5326948410038 -999972.26805119298
 6923.1163963495519 -4079.4016609437285 -999967.71394953085
 7981.0604416210508 -3341.1768770274361 -999962.56890510814
 8744.3791868461121 -2795.2434781880938 -999957.86033539148
 9295.1047387473409 -2400.5416595335919 -999953.91815204988
 9697.2781315598149 -2125.0346125480241 -999950.72229822131
 10000.899460530894 -1945.1346335715459 -999948.097883704
 10245.295646193037 -1844.3018286435488 -999945.81476592366
 10462.141526606423 -1811.5668281566209 -999943.62932132569
 10678.133547166626 -1840.4217379958995 -999941.29343265691
 10917.252413895982 -1928.1863349463897 -999938.54596029513
 11202.708578723779 -2075.7446492794957 -999935.09319587913
 11558.848412871801 -2287.5596027635406 -999930.57763748372
 12013.345421215581 -2572.03355779609 -999924.52923966618
 12599.855863957628 -2942.4153299729674 -999916.28940838529
 13361.083320976557 -3418.379236671733 -999904.89354532305
 14352.124379279472 -4028.0881913842513 -999888.88934287278
 15644.15977390041 -4810.1510401433334 -999866.05238498794
 17328.683757636129 -5814.3173452038181 -999832.94126220781
 19522.323395879197 -7098.9434652470236 -999784.21866465954
 22371.150315934105 -8721.9830496521117 -999711.68776063807
 26047.03561577608 -10718.730071754404 -999603.25167602336
 30704.820962764559 -13050.796610836122 -999443.29037593107
 36272.767972751979 -15489.768889616949 -999221.87394158915
 41498.34838631608 -17369.218228004505 -998987.5861788051
 -0 0 -0
 -0 -0 -0
 0 0 -0
 -21373.817291723128 -13303.207533864903 -999683.04207068111
 -16920.433966089458 -12930.032853108405 -999773.23087028915
 -10800.73011494938 -11103.623238672262 -999880.01969234156
 -5224.5022992187132 -9119.1528580391368 -999944.771288333
 -849.73241182717447 -7331.7728314736987 -999972.7611600107
 2405.29275760272 -5827.3972749763752 -999980.12780642277
 4775.2995137181451 -4610.2690098105986 -999977.97072446148
 6482.125697383196 -3652.6638615381189 -999972.31966347841
 7701.9313646574783 -2915.6318767275002 -999966.08909703209
 8567.6973099038387 -2359.1990506127527 -999960.51359173434
 9178.7051876308669 -1947.349854726403 -999955.97863087035
 9609.3755999565255 -1650.1336341154069 -999952.46735010773
 9916.049071079804 -1444.0780508332234 -999949.79204428208
 10141.960023012569 -1311.673315962666 -999947.70871281251
 10320.94238635578 -1240.464278140553 -999945.96823860053
 10480.307445971999 -1222.1157409209613 -999944.33324508311
 10643.154789263914 -1251.6713266433599 -999942.57663878973
 10830.278270077157 -1327.0837633658527 -999940.47018873948
 11061.833594461734 -1449.0044974424479 -999937.76617522282
 11358.97451138416 -1620.8171012647442 -999934.17115826893
 11745.671197896076 -1848.9524173530192 -999929.30779284053
 12250.878052665146 -2143.561144777912 -999922.6575753534
 12911.168713829769 -2519.571817741019 -999913.47299668787
 13773.998886294208 -2998.0176458888886 -999900.6394861819
 14901.928350394097 -3607.3179110812057 -999882.45298581407
 16378.336487096207 -4383.9499051798221 -999856.25520728959
 18315.219935885962 -5371.628726160955 -999817.83256927808
 20862.921935709801 -6617.6127967870752 -999760.44415108569
 24217.734598366071 -8163.5802120896824 -999673.37530267565
 28608.45160369897 -10025.631792916796 -999540.41599326627
 34186.293548046946 -12147.22455897217 -999341.6544250322
 40539.259752531259 -14235.158093229422 -999076.53795531485
 45666.476720285405 -15101.322399938055 -998842.59168586181
 -0 -0 0
 0 0 -0
 -20620.773445727878 -11170.605948504648 -999724.96280989354
 -15180.331789770682 -10182.500871423819 -999832.92314404016
 -8798.1322977936161 -8506.6762784230086 -999925.11185926548
 -3412.3464316512068 -6839.0525756192728 -999970.79119927227
 673.11296475864776 -5410.7360812735797 -999985.13531651825
 3641.0171959644904 -4249.1226706779198 -999984.34385259682
 5755.1038516876824 -3327.8966290697258 -999977.90169767372
 7244.9226701564648 -2610.1056238106112 -999970.34878247057
 8286.3409639349011 -2059.5390566097271 -999963.54676173266
 9008.4704708395948 -1644.0244952747821 -999958.07144261559
 9505.1524626520604 -1336.4363732177735 -999953.93194610835
 9844.9706982828702 -1114.8348127348861 -999950.91564300796
 10078.75768451194 -962.14362185022117 -999948.74514806399
 10244.955195587567 -865.57317946220132 -999947.14444120077
 10373.431353387869 -815.9513783073437 -999945.86160716985
 10488.263955308999 -807.09505431496279 -999944.67092773551
 10609.848387386972 -835.31212820985832 -999943.36508166557
 10756.579398325815 -899.07528117130801 -999941.74213465373
 10946.307118027493 -998.8746837445517 -999939.58848014614
 11197.754028528665 -1137.2542141207309 -999936.65647258342
 11532.073307563696 -1319.0523782383914 -999932.63342389825
 11974.723630480825 -1551.8771999678202 -999927.09617808112
 12557.855348997846 -1846.8183084948021 -999919.44152075017
 13323.486809464554 -2219.3368604133798 -999908.77546061086
 14327.912873470634 -2690.1945163734008 -999893.73123655224
 15647.984817003027 -3286.2015014666185 -999872.16255422309
 17389.974492700087 -4040.4825757598328 -999840.61894268834
 19701.14133786373 -4991.8049391219656 -999793.45212570566
 22781.03058548542 -6181.8899555915987 -999721.36562246177
 26877.823888314775 -7646.8013863316992 -999609.47825217573
 32213.37831174368 -9385.1151520124386 -999436.95042325091
 38641.035833333 -11231.963170410547 -999190.02864973852
 44437.516888457627 -12527.310482445635 -998933.61820736853
 0 0 0
 -0 -0 0
 -19182.872470021695 -9615.863485336231 -999769.74977903324
 -13369.448664432735 -8138.45533914517 -999877.50419093948
 -7055.3623629277163 -6509.8315385569731 -999953.9209159927
 -1936.804427338508 -5099.5570053242018 -999985.12154279556
 1863.66201918566 -3962.4257414038379 -999990.41292710498
 4582.5452287340504 -3068.9689479856152 -999984.79073875083
 6490.7732704489927 -2375.0791618951007 -999976.11414539604
 7813.6841594118323 -1840.7868614797242 -999967.77840267809
 8721.1088046730656 -1433.3406289417755 -999960.94313520973
 9336.3378318351042 -1126.5598159213746 -999955.7808517688
 9747.9277167151013 -899.73211679591384 -999952.08304565679
 10019.764363591226 -736.68355702001475 -999949.52953608357
 10198.604218388222 -625.02667279033506 -999947.79754427914
 10319.447846144236 -555.52331573076731 -999946.59876915242
 10409.317677760911 -521.53602250128552 -999945.68557780213
 10489.943566658816 -518.57391160178008 -999944.84456147207
 10579.734372376568 -543.94866994201129 -999943.88509578619
 10695.310476349352 -596.55116367075323 -999942.62558434973
 10852.808620661552 -676.75301878799098 -999940.87752746406
 11069.139581118572 -786.43875428473154 -999938.42593582708
 11363.369784847435 -929.18021743785255 -999935.00311333046
 11758.409079741401 -1110.5668558710377 -999930.25079611025
 12283.230084984974 -1338.6948402187918 -999923.66216366959
 12975.937674372473 -1624.7980346441695 -999914.48888033291
 13888.154798338317 -1983.9873620478331 -999901.58663262683
 15091.358897430398 -2436.0685691819444 -999883.15140148008
 16685.855455704368 -3006.4396182228916 -999856.26144388015
 18812.56647526228 -3727.0822859349432 -999816.08118705882
 21665.337558072097 -4637.3781471756529 -999754.52380692691
 25492.507623541955 -5782.7063503882828 -999658.28779754997
 30545.103883618729 -7201.125331397493 -999507.44890806137
 36807.815207729735 -8861.6188123990778 -999283.07123239967
 42809.086144845751 -10423.280970617829 -999028.89715826069
 -0 0 -0
 -23120.310849368878 -8400.3234021481912 -999697.39711223007
 -18420.183582344882 -7863.8680339473831 -999799.40808961156
 -11771.317723842472 -6311.5859243635277 -999910.79600240523
 -5603.9649617160067 -4870.1230758157617 -999972.43835914531
 -766.07010848604932 -3726.1243913405101 -999992.76454062853
 2778.6405586015808 -2846.3308661762812 -999992.0887473292
 5290.7618971184784 -2174.2854543374879 -999983.64002683118
 7036.5830308807372 -1661.6531979095892 -999973.86236236151
 8232.3691431835086 -1271.3570344765133 -999965.30527292879
 9039.966439018146 -975.66417815144052 -999958.6626887098
 9576.4413462916345 -753.80935542700558 -999953.86070688115
 9925.5294593950421 -590.13941875434375 -999950.56657837681
 10147.303195611126 -472.82613169640962 -999948.4030055278
 10285.448375608375 -392.98564104749727 -999947.02615388506
 10372.473189207667 -344.05511645071454 -999946.1452628416
 10433.367655343669 -321.33359877583479 -999945.51930797065
 10488.183540080101 -321.64049388412849 -999944.9457612267
 10553.901162311235 -343.07200593414859 -999944.24718173908
 10645.856936961753 -384.8478781663394 -999943.25720122166
 10778.94232779332 -447.2463742412491 -999941.80549318716
 10968.750592044309 -531.62978222055438 -999939.70012207434
 11232.838857810972 -640.56698710201169 -999936.70449940441
 11592.289824784279 -778.06162475316239 -999932.50444053777
 12073.806463871102 -949.89345811311239 -999926.65776040347
 12712.662636995869 -1164.0808744208903 -999918.51324215194
 13556.962820127294 -1431.4839241716286 -999907.07548895176
 14673.80576246171 -1766.6028280009195 -999890.77330421133
 16157.991141652148 -2188.6963287819017 -999867.0556282202
 18143.521581050692 -2723.4338389256704 -999831.68360117648
 20816.369731996409 -3405.3069006323335 -999777.51656860812
 24420.963452555603 -4280.5921170609672 -999692.59928998991
 29233.552868619852 -5408.3879639797215 -999557.97667084262
 35411.121234644066 -6844.736404043646 -999349.38939114986
 42425.328929766809 -8503.8230320325947 -999063.44966625655
 48074.905560761406 -9478.0716888038096 -998798.76332141401
 -23011.510316494929 -5768.4812081131076 -999718.55790392612
 -17390.358280937504 -5332.2454243134052 -999834.5576132061
 -10488.308732254496 -4365.495127839311 -999935.46683384839
 -4496.0374465183722 -3385.9906404600192 -999984.16023188224
 108.36013344060984 -2578.443184324422 -999996.66993886884
 3451.4379690031706 -1952.826734200067 -999992.13699093275
 5805.0583968614519 -1476.9168890681171 -999982.05984583148
 7429.1985890019814 -1116.4724869771628 -999971.77985056699
 8531.6118895646832 -843.85736801280382 -999963.24907633918
 9266.9984969311245 -638.33980747261501 -999956.85669990175
 9747.0455560311657 -484.65402671002755 -999952.37897282036
 10051.521453341495 -371.55675799560515 -999949.41315150959
 10237.532268715573 -290.73571582683786 -999947.5528275423
 10346.491971587495 -236.05013304866691 -999946.44575808011
 10409.128414656177 -203.010574471578 -999945.80294751667
 10449.006909824871 -188.41862975437942 -999945.38988537679
 10485.010136233166 -190.11561966543761 -999945.01269744535
 10533.122054661882 -206.81213222769784 -999944.50374434446
 10607.780234634487 -237.9844401804348 -999943.70759653277
 10723.001703226859 -283.83209019726451 -999942.46668186749
 10893.454519557754 -345.29636796700913 -999940.6049456381
 11135.639478814413 -424.14317297311845 -999937.90689020616
 11469.364831088473 -523.11683223246905 -999934.08783736895
 11919.745310484728 -646.17462462510798 -999928.74852665758
 12520.0399986628 -798.81914030604139 -999921.30214653024
 13315.759611437439 -988.56287981424657 -999910.85267107864
 14370.598845011826 -1225.5928718449773 -999895.98649606958
 15774.79511135645 -1523.7507277258719 -999874.40912492329
 17656.21608031564 -1901.9742464264261 -999842.30783043522
 20193.068585925044 -2386.2301182153619 -999793.25157099718
 23622.351625202842 -3011.2298546718171 -999716.41828993557
 28223.131376599929 -3817.9980813747607 -999594.35659969097
 34206.761099849435 -4829.8302382739921 -999403.10697682318
 41307.146296175844 -5942.091928870318 -999128.8261322336
 47516.295737441738 -6666.2311893875667 -998848.21819990315
 -22848.798992052325 -3330.4694534794507 -999733.38463704404
 -16798.035956160602 -3113.2211654546522 -999854.05627120927
 -9714.9355749350489 -2631.6827103084252 -999949.34585352219
 -3782.3567331972035 -2086.6213957369077 -999990.66985082102
 690.07577345210723 -1602.6528905779894 -999998.47764841071
 3904.0798764549204 -1213.6759611380826 -999991.64254056604
 6151.508888276876 -913.47743283027114 -999980.66206171073
 7693.0152140326181 -685.33179241573873 -999970.17347381462
 8732.0474162729697 -512.95747530885058 -999961.74337948987
 9418.675717175267 -383.30036203802848 -999955.56982726336
 9860.816956309136 -286.55389218025391 -999951.33990400797
 10135.406117911882 -215.50199970152985 -999948.61223050521
 10297.453952984628 -164.85761196988753 -999946.96622573643
 10386.806676025304 -130.75437860052298 -999946.04711972713
 10432.991753567549 -110.38846334583049 -999945.568767349
 10458.62955491604 -101.77286760674104 -999945.3018591149
 10481.833698503422 -103.5707844937219 -999945.05870843201
 10517.933976119628 -114.9859980304566 -999944.67839130701
 10580.776998952364 -135.69797555806394 -999944.01280479599
 10683.803934399264 -165.83597983369901 -999942.91278648435
 10841.073517367851 -205.99086861445016 -999941.21261839848
 11068.391875349684 -257.26646756932621 -999938.71037942055
 11384.729147733196 -321.37515283830197 -999935.14022672665
 11814.149541225541 -400.78613986744773 -999930.13017964782
 12388.559294752877 -498.94193406106075 -999923.13437361119
 13151.685097496442 -620.57113280919373 -999913.32027859555
 14164.815187416791 -772.1435503298303 -999899.37583991128
 15514.898204616995 -962.52378839273717 -999879.17344130005
 17325.389315746128 -1203.829722339839 -999849.17946611205
 19769.140749091108 -1512.2276568221846 -999803.4278004634
 23078.825556503092 -1907.4141632221094 -999731.82883318374
 27538.213078387791 -2406.57714652291 -999617.85458588472
 33398.080678889579 -3001.436484711001 -999437.6216582976
 40518.34414558547 -3600.1690539055799 -999172.30874883814
 46981.618046798678 -3970.7240456204554 -998887.86203269998
 -22735.420619027209 -1494.7811112544589 -999740.39944312826
 -16518.624974899249 -1410.0419018469051 -999862.56396105443
 -9332.9056287355288 -1217.5786735224563 -999955.70620637946
 -3403.907561842665 -983.24024933634712 -999993.72330626263
 1012.7820604293213 -762.87574990616156 -999999.19614622113
 4160.9629743642745 -579.58406446197205 -999991.17519578035
 6349.9684202931167 -435.68900369052443 -999979.74383292068
 7844.5231439038189 -325.57499597598854 -999969.17825379339
 8847.1240358544837 -242.23028990163976 -999960.83409340633
 9505.6648495100289 -179.56042340403999 -999954.80402557342
 9925.9931349031303 -132.84454261181472 -999950.72729240661
 10183.402650139311 -98.577930581297508 -999948.14295185171
 10331.673335136978 -74.195168605812114 -999946.62408609234
 10409.7347082131 -57.828480205681046 -999945.81557160954
 10446.420200172379 -48.129640515234279 -999945.43350551836
 10463.80959731147 -44.146594199366156 -999945.25187121588
 10479.579525457022 -45.240405619879937 -999945.08667540119
 10508.689035079175 -51.031393291657579 -999944.78090070595
 10564.649832354891 -61.367705049150338 -999944.19064662047
 10660.576490972404 -76.31294174729392 -999943.17152787012
 10810.1821637018 -96.151886000925842 -999941.56365079794
 11028.879100906985 -121.41509839819787 -999939.17269209505
 11335.161668981236 -152.92486932353592 -999935.74329749926
 11752.494626107045 -191.86724268483334 -999930.91864239529
 12312.004495468113 -239.89872981431105 -999924.17562228336
 13056.376654102325 -299.30214949173131 -999914.71708685695
 14045.482635745238 -373.21171680593523 -999901.28769321204
 15364.348139977063 -465.92115868133391 -999881.85288248316
 17133.95380572162 -583.23213850426339 -999853.0329339687
 19524.523387768637 -732.58732709128253 -999809.10993163532
 22767.791232311658 -922.11470082913695 -999740.35498567333
 27153.832503100642 -1156.2911745137549 -999630.59795662179
 32958.792271651873 -1424.0153609449258 -999455.69696322503
 40093.95132106066 -1677.8294615677605 -999194.50556724065