# OOMMF OVF 2.0
#
# Segment count: 1
#
# Begin: Segment
# Begin: Header
#
# Title: Oxs_TimeDriver::Magnetization
# Desc: Oxs vector field output
# Desc:  MIF source file: /mnt/gpfs/work/plgrid/groups/plggspinsym/MF/switching-obrazki/p-ap/Anisotropy.mif
# Desc:  Iteration: 8700, State id: 61015
# Desc:  Stage: 0, Stage iteration: 8700
# Desc:  Stage simulation time: 1.28027e-09 s
# Desc:  Total simulation time: 1.28027e-09 s
# meshunit: m
# meshtype: rectangular
# xbase: 1.0000000000000001e-09
# ybase: 1.0000000000000001e-09
# zbase: 3.4999999999999998e-10
# xnodes: 35
# ynodes: 35
# znodes: 5
# xstepsize: 2.0000000000000001e-09
# ystepsize: 2.0000000000000001e-09
# zstepsize: 6.9999999999999996e-10
# xmin: 0
# ymin: 0
# zmin: 0
# xmax: 7.0000000000000005e-08
# ymax: 7.0000000000000005e-08
# zmax: 3.4999999999999999e-09
# valuedim: 3
# valuelabels: Magnetization_x Magnetization_y Magnetization_z
# valueunits: A/m A/m A/m
#
# End: Header
#
# Begin: Data Text
 -0 0 -0
 0 0 -0
 -0 -0 0
 -0 0 0
 0 0 0
 -0 0 -0
 0 0 0
 0 -0 0
 -0 0 0
 0 0 0
 0 0 0
 -0 -0 0
 0 0 0
 19620.21250016144 -13082.780094407408 -999721.90539492026
 20065.949567529598 -14484.422692559388 -999693.73268377373
 20131.033013493568 -15720.9049151011 -999673.74410777655
 20210.047612721755 -16579.292491610409 -999658.28213243419
 20505.389515455478 -17122.580006909549 -999643.10944192798
 21119.033961312605 -17424.796240382027 -999625.11116944347
 22075.192747249032 -17507.122008743318 -999603.01447331707
 23203.626397919503 -17318.680070167273 -999580.73963167821
 23811.052465898461 -16827.265383461956 -999574.84808301425
 0 0 0
 -0 0 -0
 -0 0 -0
 -0 0 0
 0 -0 0
 -0 0 0
 -0 -0 0
 0 0 0
 0 -0 0
 0 -0 -0
 0 -0 0
 -0 -0 0
 0 0 -0
 -0 -0 -0
 -0 -0 -0
 -0 -0 -0
 -0 0 -0
 0 0 -0
 0 0 -0
 -0 -0 0
 0 0 0
 0 0 -0
 0 0 0
 18168.325133810307 -11802.910710567534 -999765.27408216684
 17704.282736868685 -12945.996749486338 -999759.4508385181
 17365.414987385495 -13638.832595671029 -999756.1825804048
 18471.827121738726 -14120.949999183476 -999729.65864472836
 19406.973718889523 -15218.968168177124 -999695.82992976927
 19865.64352096057 -16268.84575625714 -999670.2860769931
 20172.144710225784 -17040.604750879142 -999651.29038455896
 20584.463293575151 -17567.262112226414 -999633.76852365083
 21255.670565268785 -17938.325950582283 -999613.13163188868
 22255.228278221239 -18249.442521305282 -999585.74552758876
 23495.109545675514 -18612.693556355829 -999550.67278553406
 24504.55792267677 -19158.771153321381 -999516.11699307221
 24917.967874945687 -20029.549469280082 -999488.82536276535
 25253.380133053874 -19493.367116825997 -999491.00817881536
 25612.665723408758 -18382.914844039482 -999502.90634713904
 -0 0 -0
 0 -0 0
 -0 0 -0
 0 -0 -0
 -0 0 0
 -0 0 0
 -0 0 -0
 -0 0 0
 -0 0 -0
 -0 0 0
 0 -0 -0
 -0 0 -0
 -0 0 0
 -0 0 0
 -0 -0 0
 0 0 -0
 0 -0 -0
 -0 -0 0
 17984.833914346123 -10649.84037186653 -999781.53946206009
 17380.126083530289 -11787.568378189844 -999779.46790732304
 17434.255048089672 -12653.919021185275 -999767.93561522232
 17441.611469715881 -13541.619072796449 -999756.17764644348
 17478.332469811583 -13969.352063101353 -999749.65121124778
 18135.09385183817 -14195.883660818059 -999734.76245355862
 18946.778784524569 -14722.250652432649 -999712.09601035505
 19552.093900818694 -15375.784938468227 -999690.60256742407
 20019.108635383109 -15958.884998264728 -999672.22091996588
 20520.831137087771 -16437.2801942357 -999654.29589896707
 21196.150281790309 -16870.85847048122 -999632.98132249562
 22113.394245300446 -17365.739031806988 -999604.63629518589
 23213.795074112408 -18047.309023015649 -999567.61369868566
 24240.113752960664 -18960.95643904883 -999526.33732991747
 25013.337603492997 -19844.018942368566 -999490.14395047864
 25895.014292901677 -20114.826418668985 -999462.27642313601
 26936.730400942721 -20071.563444329789 -999435.61318186333
 27735.85103281587 -19924.570905311455 -999416.69689960894
 27709.818164476281 -18581.996460071845 -999443.28272536269
 -0 0 -0
 -0 -0 -0
 0 0 -0
 -0 0 0
 -0 0 -0
 0 0 -0
 0 -0 -0
 -0 -0 -0
 -0 -0 0
 0 0 0
 0 0 0
 0 0 -0
 -0 0 0
 0 0 0
 -0 -0 -0
 16624.024667357811 -9815.7530152742547 -999813.62903123221
 16999.74373271516 -11011.685309885055 -999794.85470753373
 16985.740714441312 -12060.685704208216 -999782.9886894084
 17116.685401846556 -12666.587171945323 -999773.26262021507
 17353.731343219013 -13088.887248167826 -999763.73660934134
 17646.465157078317 -13291.911452217388 -999755.93389457138
 18164.915253881689 -13400.087760615957 -999745.20429048664
 18792.023850107154 -13641.928429871283 -999730.34245657024
 19358.784370447927 -14010.706217824471 -999714.42801380844
 19856.430336167199 -14415.61004298009 -999698.91085335996
 20370.322890185435 -14820.49323586991 -999682.65110763768
 20992.60948613127 -15255.95672894012 -999663.22635738039
 21774.510378410356 -15793.994940144557 -999638.14474119153
 22692.962772616338 -16508.524599893797 -999606.17147761502
 23653.331774626618 -17398.233972179911 -999568.81771622354
 24628.803957508622 -18312.584812202305 -999528.92467057623
 25779.644200311071 -19072.578694545344 -999485.69108659367
 27119.169784535006 -19740.13058605315 -999437.28061076591
 28421.283634135711 -20173.251157245635 -999392.450729109
 29433.167718170986 -19955.660655589854 -999367.53011385805
 29809.773357950089 -19445.587309479153 -999366.42256308428
 -0 -0 -0
 0 -0 0
 -0 0 -0
 -0 -0 -0
 0 -0 -0
 0 -0 -0
 0 0 -0
 0 -0 -0
 -0 0 -0
 0 0 -0
 -0 0 0
 -0 0 0
 -0 0 -0
 15234.731377989823 -9298.1490830198327 -999840.71100524336
 15715.497673602287 -10170.187053667587 -999824.77986303414
 16253.45465080959 -11042.213380646104 -999806.92872952763
 16671.776368187016 -11685.771777096101 -999792.72582405934
 17050.491976716468 -12046.348966974387 -999782.05935089558
 17430.150679761773 -12237.70912541004 -999773.18843957945
 17822.048419977513 -12318.711439780165 -999765.28442358866
 18279.409720650798 -12369.244943892365 -999756.40281009581
 18777.662092275663 -12490.852326487449 -999745.65666198626
 19258.559308226555 -12705.920174452336 -999733.79831127636
 19714.050693453988 -12985.911408671664 -999721.32232444757
 20185.757056898037 -13313.258163150069 -999707.60343668563
 20728.874876690254 -13703.565865672128 -999691.21534047287
 21381.683971261849 -14196.914294945271 -999670.58134920383
 22149.866605018786 -14831.531719024773 -999644.64139825571
 23019.743355339528 -15606.563600890271 -999613.18848263787
 24014.186499351443 -16467.861783984252 -999575.97428861691
 25215.232499356622 -17365.839888571405 -999531.19994073617
 26656.32694156823 -18308.127646106965 -999476.98957808816
 28275.324095819804 -19230.187569981696 -999415.18196058029
 29888.185918406627 -19981.612685708475 -999353.50677174551
 30955.663152781606 -20371.102643896407 -999313.14666416938
 30902.910015004993 -20064.061382765514 -999320.99127028883
 0 -0 -0
 -0 0 -0
 0 0 0
 0 0 -0
 0 -0 0
 -0 0 0
 -0 0 0
 0 -0 0
 -0 -0 -0
 -0 -0 -0
 0 0 0
 14395.310538378299 -9555.5617029030873 -999850.72199556162
 14642.840100664698 -10050.349768111431 -999842.27641329751
 15224.592357425063 -10543.29327521792 -999828.51067293703
 15934.456806945323 -10929.671146911653 -999813.3002590473
 16570.271038956809 -11203.184129605517 -999799.93737900071
 17102.595643729372 -11354.079000900523 -999789.27085275739
 17561.38605008533 -11419.089889167646 -999780.57697982062
 17979.345402291732 -11438.285971155614 -999772.928595762
 18390.080300745452 -11458.255208733515 -999765.22910836583
 18799.75083769294 -11526.805271542091 -999756.82149644394
 19198.106425645907 -11663.284131185044 -999747.66842085938
 19588.952639603973 -11863.138885290042 -999737.73504368216
 19997.558454275459 -12121.800028496964 -999726.54242044478
 20458.915120600388 -12448.772717471478 -999713.18929476792
 21003.573483024731 -12866.063542758287 -999696.61113252607
 21651.402946550661 -13395.758904323337 -999675.8326546778
 22419.999915279121 -14045.423382878766 -999649.97358365101
 23345.126330207488 -14807.314840351035 -999617.80121396657
 24484.040432334303 -15680.28151130647 -999577.24090529082
 25879.428818596123 -16681.781474884661 -999525.87426781876
 27525.297085819548 -17812.322818937777 -999462.39507853996
 29311.014744101714 -19028.088337753084 -999389.21160320798
 30893.368750700731 -20163.866395135439 -999319.277438013
 31676.021544846237 -20765.781086336221 -999282.44855744613
 31272.967568625492 -20462.836372531452 -999301.39288757253
 0 -0 0
 0 0 0
 0 -0 -0
 0 -0 0
 0 -0 -0
 -0 -0 0
 0 -0 -0
 0 -0 0
 0 0 -0
 14223.173727983169 -10365.053888450175 -999845.12149982154
 14119.067391022851 -10593.007571787199 -999844.20792771119
 14491.935678732018 -10747.676702835623 -999837.22237460979
 15187.803484443602 -10795.561949775822 -999826.3781614817
 15959.119515957469 -10815.681695244302 -999814.14649610862
 16652.57128729895 -10828.480580117552 -999802.69847497763
 17228.445106695399 -10825.402724303989 -999792.9742376979
 17703.404552054661 -10808.628303993461 -999784.85836776509
 18108.634362385106 -10790.920452567634 -999777.79201046261
 18473.829346829221 -10792.430000996046 -999771.09434306901
 18816.608135284125 -10834.315968303086 -999764.24863853876
 19145.859262216571 -10928.0759512766 -999756.97708448838
 19473.179744613728 -11075.564983658564 -999749.03207301314
 19818.311043590802 -11277.660748950169 -999739.99065527576
 20206.458858617963 -11541.265626172679 -999729.21244111948
 20663.155562330852 -11879.88568079305 -999715.91080587392
 21212.313688433056 -12309.089778012816 -999699.21679314156
 21880.362731321449 -12841.720178338297 -999678.11817084753
 22703.542180801869 -13489.256720998445 -999651.23374382907
 23727.64369773649 -14270.238882921767 -999616.60610795044
 24993.163568865533 -15213.925683795294 -999571.84746275644
 26512.377682955233 -16347.63646360633 -999514.80659950699
 28230.37489945121 -17672.00677417481 -999445.21916391689
 29962.192374311628 -19101.044104666442 -999368.50918079074
 31343.519978578963 -20358.194872513559 -999301.31975139794
 31847.449239661957 -20945.539412092094 -999273.24809366534
 31165.963743808814 -20515.280165720429 -999303.66054750409
 0 -0 0
 0 -0 0
 0 0 -0
 0 0 -0
 0 0 -0
 0 -0 0
 -0 0 -0
 14828.767742064114 -11366.045742343314 -999825.44509100926
 14266.602404854308 -11463.987531160241 -999832.50649581652
 14276.934031926245 -11400.836488244866 -999833.0811100502
 14759.267790046679 -11184.039630905821 -999828.5259342402
 15463.488384376011 -10943.120202987078 -999820.54822213412
 16195.742239750094 -10746.420671539532 -999811.08834422019
 16850.888683622637 -10605.089000679029 -999801.77017139748
 17396.560261540402 -10506.092596317249 -999793.46952729416
 17841.616243448054 -10437.6291828591 -999786.34348887892
 18210.365342871763 -10396.037058755002 -999780.12833200069
 18528.488277679189 -10384.818077271821 -999774.39989011816
 18816.322683269198 -10410.493664927175 -999768.75707452057
 19089.218287173164 -10477.749844725997 -999762.88113901066
 19361.926665643907 -10588.517291474638 -999756.46989522502
 19651.786982205515 -10744.868756365137 -999749.14606805949
 19978.8939608976 -10952.140281757987 -999740.41351710283
 20364.874555633665 -11219.835174856486 -999729.65704883577
 20832.705757028951 -11560.488065102187 -999716.13645401259
 21408.706653909507 -11988.603834837459 -999698.9250056732
 22125.155794841128 -12522.018714605021 -999676.78603054758
 23019.405159614285 -13185.38808460403 -999648.06433422165
 24126.455302794169 -14011.194094229591 -999610.72452959197
 25465.056790689399 -15033.107974014883 -999562.67264603719
 27015.047814642658 -16268.707543050195 -999502.63448699901
 28684.831260489176 -17683.179872915851 -999432.0815368793
 30274.849859772894 -19131.536346991594 -999358.50313237053
 31435.739267372086 -20298.439653874902 -999299.63856909878
 31658.248393202797 -20681.548542640619 -999284.75864417793
 30662.769270199671 -19955.258491426546 -999330.56704937364
 0 0 0
 0 0 0
 -0 0 0
 0 -0 0
 -0 0 -0
 15901.909623807063 -11835.166674580076 -999803.50974584068
 15032.10371058573 -12107.234944582311 -999813.70800766221
 14609.768160533091 -12066.984552205151 -999820.45516088163
 14754.551100214827 -11768.457378717148 -999821.88745433872
 15250.756083846005 -11382.234387603849 -999818.9131933928
 15888.325326012386 -11020.73434118419 -999813.03478846268
 16528.897903416972 -10731.608988340333 -999805.7951935567
 17100.102201321082 -10520.504617853143 -999798.43242890225
 17578.032780286139 -10374.670354248816 -999791.66778815282
 17967.743243924844 -10279.199105259529 -999785.72617760196
 18287.330077076211 -10223.802600848785 -999780.49961930688
 18557.894532297971 -10203.68387964568 -999775.71954204445
 18798.53583807364 -10217.669404066977 -999771.08093917882
 19025.497261242974 -10265.831274696389 -999766.2942719172
 19253.737237743389 -10348.588996562425 -999761.07161069254
 19498.689499392338 -10467.520080470675 -999755.08607416996
 19777.078305654748 -10626.67157002625 -999747.93874507945
 20107.114635139373 -10833.282231279496 -999739.13794406725
 20508.935865334624 -11097.83542617419 -999728.07382734085
 21005.699531174265 -11434.201392135727 -999713.96890597162
 21624.598088689494 -11860.646126611629 -999695.80464807479
 22396.126161630022 -12401.306311289944 -999672.25685957994
 23350.124689059136 -13086.078779188596 -999641.69891976297
 24507.983987985415 -13946.213403619329 -999602.35186425259
 25870.173116518308 -15003.018208373403 -999552.72176487069
 27398.405896075557 -16246.212014115272 -999492.56522975001
 28991.101626022941 -17600.215875503545 -999424.70873380243
 30444.365156651093 -18879.675589081726 -999358.14324988576
 31389.760331449012 -19736.783704605481 -999312.33471589442
 31262.986879763561 -19659.617484980346 -999317.82986780547
 29754.574749508152 -18404.957485753901 -999387.77400037448
 0 0 0
 -0 -0 -0
 0 -0 -0
 0 0 -0
 15330.161604114335 -11814.450576853951 -999812.68490790762
 15066.718007731577 -12173.16905333664 -999812.38638240239
 15016.627369488087 -12126.957675542673 -999813.70154643396
 15296.507773240732 -11821.939297399964 -999813.11183700315
 15780.061068674377 -11436.662117334057 -999810.07818099274
 16335.504036329052 -11073.6912535805 -999805.24336987745
 16874.445245204421 -10776.377236817585 -999799.54130381392
 17350.734973888179 -10553.148630874715 -999793.77025956719
 17749.448380782404 -10396.012808749278 -999788.41761637665
 18075.074518104157 -10292.487753404817 -999783.65478587954
 18341.766834458926 -10231.587113585731 -999779.42278010864
 18566.71038761051 -10205.708565665369 -999775.53519680363
 18766.514750789534 -10210.318973427631 -999771.75760798983
 18956.096954209621 -10242.961191854954 -999767.84711966256
 19149.146944622964 -10302.680075344377 -999763.55452404765
 19359.095201289219 -10390.184296769807 -999758.60561600898
 19599.927847426366 -10508.39071024588 -999752.67769236618
 19886.773087938684 -10662.92148330272 -999745.376764299
 20236.514298917067 -10862.443418905372 -999736.21061358007
 20668.530304309261 -11119.074908860421 -999724.55107806099
 21205.251381333448 -11449.039322945478 -999709.58623614104
 21871.821416777057 -11873.244362592864 -999690.27678387403
 22694.186892974027 -12416.739630135147 -999665.34323153575
 23695.161998484109 -13105.584432394349 -999633.32425172324
 24888.046347147214 -13959.508448834138 -999592.77572063764
 26267.028856794033 -14978.61454591537 -999542.73760621238
 27792.11892360228 -16122.69395011626 -999483.69514741341
 29362.034826024574 -17281.886672599619 -999419.43512416782
 30763.010859144204 -18238.555238574001 -999360.2915193747
 31583.735364464032 -18645.61091424352 -999327.17808236461
 31206.046518096558 -18218.979684618294 -999346.91245831246
 -0 0 -0
 -0 -0 -0
 0 0 -0
 15504.654520102964 -11805.827074377437 -999810.09603589319
 15131.008018717375 -12010.014486207483 -999813.38866229379
 15125.540634020645 -12124.560779770041 -999812.08886791638
 15366.117340315945 -12035.670105487874 -999809.49439530482
 15765.451930475909 -11780.828259365682 -999806.31254806102
 16244.098515784142 -11461.41015371731 -999802.36314018467
 16732.060595326035 -11152.005733273445 -999797.81501879636
 17182.506161299123 -10890.095870527721 -999793.06223535456
 17572.0730846435 -10687.057518570557 -999788.48215465178
 17895.486055189576 -10540.095452879219 -999784.30572133558
 18159.142637438617 -10440.820766669045 -999780.59333055234
 18375.520820241247 -10380.209565896852 -999777.27093785896
 18559.144499043043 -10350.806887180463 -999774.18397968635
 18724.220423943476 -10347.260302881145 -999771.14269903791
 18883.74257714429 -10366.132710324055 -999767.94685512513
 19049.604735156703 -10405.683119061894 -999764.38940295333
 19233.198053511249 -10465.905656031127 -999760.24571465806
 19446.09399515959 -10548.793032838559 -999755.25624718855
 19700.685868035878 -10658.670010109401 -999749.10639117076
 20010.808078660772 -10802.531695288993 -999741.40299830085
 20392.36241140914 -10990.411022977316 -999731.64520326536
 20863.81108521756 -11235.774440123423 -999719.18995272403
 21446.27352032427 -11555.701095499053 -999703.21752222197
 22162.922397918534 -11970.291615839751 -999682.70815765101
 23037.457316525299 -12500.500408493741 -999656.44751080684
 24091.350974699362 -13163.497360094561 -999623.09354349389
 25339.116194010396 -13964.641715007951 -999581.37136117031
 26779.246828489831 -14885.326812239375 -999530.53929581936
 28374.268362403578 -15866.331501773333 -999471.44052222627
 30002.784611731793 -16788.027855564669 -999408.82277287473
 31338.921604100517 -17453.954775298553 -999356.40862276661
 31595.36473226142 -17569.139934229188 -999346.31547297316
 29971.428236814394 -16755.582528433995 -999410.30810352287
 -0 -0 0
 0 0 -0
 15040.264559781193 -11592.131469371488 -999819.69020917383
 15030.853310443305 -11948.485345420564 -999815.6365784196
 15244.53359077176 -12059.455473153039 -999811.06901718734
 15655.958479424067 -11980.888278653114 -999805.65575522976
 16135.5685745188 -11784.606618469083 -999800.36330940831
 16612.988528925674 -11539.053344486489 -999795.40850118478
 17051.309221846423 -11295.533825459492 -999790.81000448251
 17432.199351305688 -11083.102613360114 -999786.61886536505
 17750.246490033911 -10913.125180749164 -999782.89265636692
 18009.208020183378 -10786.047971318572 -999779.64051867265
 18218.625127207175 -10697.013791766391 -999776.80288873124
 18390.894748383736 -10639.549279994699 -999774.26201191661
 18539.068395138074 -10607.559078777987 -999771.86529399315
 18675.52177996207 -10596.159948449045 -999769.44656285294
 18811.438254952616 -10601.905040461179 -999766.83751777501
 18956.919081790671 -10622.818828197596 -999763.86759027734
 19121.443398720014 -10658.478715139272 -999760.35490202787
 19314.463889318689 -10710.193688025547 -999756.09187232924
 19546.010050911216 -10781.250820752355 -999750.82801757636
 19827.288143766338 -10877.185298649681 -999744.25003839983
 20171.271770621141 -11006.059583588489 -999735.95836480649
 20593.264644572559 -11178.695980763059 -999725.4394119659
 21111.344665684068 -11408.715294341931 -999712.03470886534
 21746.600833554363 -11712.078008186005 -999694.90975042782
 22523.037397747063 -12105.724801718017 -999673.02865157125
 23466.904822434317 -12604.853848131612 -999645.14805881085
 24604.659520917125 -13218.394708766171 -999609.86628343305
 25957.1708422478 -13942.235310813143 -999565.82542442135
 27523.506087622209 -14749.517866145039 -999512.33525923069
 29237.115673677828 -15575.732977314514 -999451.14318274858
 30856.99612484832 -16289.095244494123 -999391.07018537389
 31772.26678503909 -16624.288379741727 -999356.87124230422
 31119.780801767214 -16256.681113603347 -999383.44971388287
 0 0 0
 -0 -0 0
 14294.201093464668 -11605.421612909044 -999830.48063373531
 14742.983042049807 -11969.791232507374 -999819.66801462346
 15294.286134409038 -12101.595219406961 -999809.80001437478
 15872.872658433364 -12047.182725904604 -999801.43893772131
 16415.921293784053 -11898.021102532799 -999794.45618683053
 16892.664083443644 -11712.875329535955 -999788.70090218494
 17293.990959303144 -11527.692150621808 -999783.99176541134
 17621.717736384759 -11362.645559534571 -999780.15850981348
 17883.522800672268 -11226.59328085237 -999777.0467536971
 18090.468912681874 -11121.011159125332 -999774.50359834544
 18255.315819201267 -11043.295481545199 -999772.36862660339
 18391.154635757401 -10989.156686426071 -999770.47559251543
 18510.393581384331 -10954.107324374907 -999768.65967192035
 18624.170198789088 -10934.251367025359 -999766.76401621266
 18742.213813442941 -10926.642689733872 -999764.64125358139
 18873.068112499015 -10929.457152300607 -999762.14884660277
 19024.549846067537 -10942.129980561027 -999759.13914034469
 19204.301233679183 -10965.526768255209 -999755.44611510925
 19420.367594603067 -11002.145365230592 -999750.87002705457
 19681.768942719526 -11056.333977632939 -999745.16025348194
 19999.096022523838 -11134.494655150665 -999737.9952702889
 20385.143457801503 -11245.236854030727 -999728.9585554183
 20855.60129684817 -11399.390733958051 -999717.50899213599
 21429.778682026492 -11609.74645646315 -999702.94506561093
 22131.300207217151 -11890.330564252106 -999684.3629817419
 22988.512181003342 -12255.033505633404 -999660.61363918905
 24033.8271740087 -12715.385537135446 -999630.27871409117
 25299.83679845955 -13277.161738624862 -999591.73427661846
 26806.792286751064 -13934.751412182946 -999543.50510139158
 28529.179494220814 -14659.57226392498 -999485.45905301953
 30317.579229238178 -15372.386150595696 -999422.10008270061
 31742.726162346265 -15890.407543353729 -999369.7485334886
 31917.801342416486 -15938.687031305299 -999363.40347902686
 -0 0 -0
 14234.844784491403 -13147.808251594148 -999812.23453813605
 14147.585389787098 -12700.470963378848 -999819.25559820433
 14684.892826184732 -12501.580098223038 -999814.01491363929
 15395.348142589633 -12392.361929272942 -999804.68723715353
 16063.508486772842 -12276.5304935406 -999795.60435827903
 16635.469019044202 -12141.022360374922 -999787.90588132304
 17102.685091516872 -11996.922416096204 -999781.76219373127
 17472.573946936802 -11857.333454611795 -999777.03154404124
 17758.784233090562 -11731.688316684375 -999773.47087817965
 17977.088103354985 -11624.853737815874 -999770.81727708899
 18143.513785760977 -11537.914777369348 -999768.81799248769
 18273.353730786981 -11469.472309164134 -999767.24078576337
 18380.54470587118 -11416.864989219554 -999765.87797850627
 18477.290406809432 -11377.079532223028 -999764.54818149039
 18573.945094799259 -11347.328943503406 -999763.09528280911
 18679.152196899951 -11325.391348839496 -999761.38392318424
 18800.207069336604 -11309.820368143424 -999759.29111831251
 18943.552685419585 -11300.119056031786 -999756.69496181631
 19115.337558100739 -11296.916061361895 -999753.46138812776
 19321.972814151508 -11302.154446651208 -999749.42994303978
 19570.696422124376 -11319.274166587924 -999744.39827082551
 19870.168267625046 -11353.374737190808 -999738.10435288155
 20231.162433250731 -11411.329098652881 -999730.20442257402
 20667.392280561562 -11501.821321761881 -999720.24436969555
 21196.493427515747 -11635.253453987043 -999707.62202928064
 21841.081444805321 -11823.472217036717 -999691.53875885846
 22629.613557740377 -12079.259692933152 -999670.94189813163
 23596.247986998576 -12415.549343634635 -999644.4724077814
 24777.723996913577 -12844.236325531958 -999610.46912622266
 26202.646375958659 -13374.087871979258 -999567.18388334906
 27862.988183344813 -14006.191759920051 -999513.62195914029
 29645.205830548068 -14723.275035702729 -999452.043343495
 31169.295986434634 -15463.132687574809 -999394.49994243856
 31478.858578053783 -16025.388574567309 -999375.93946605327
 29519.110198989958 -15977.922087179866 -999436.50530628301
 14202.258879540404 -13274.616879389623 -999811.02233843354
 14405.674145476582 -13147.972909401346 -999809.78558963304
 14916.238497571389 -12914.359969007694 -999805.34362228448
 15595.630693292711 -12737.924057209593 -999797.24024123547
 16253.645064072633 -12606.912040063609 -999788.4200124268
 16813.472426919998 -12492.970885678747 -999780.59234183922
 17259.430532538419 -12385.396250117061 -999774.33154558437
 17600.327812386662 -12283.625027968965 -999769.64397658547
 17853.617660794931 -12189.988495205012 -999766.29895036423
 18038.803612273274 -12106.43648080276 -999763.99002963398
 18174.683425776882 -12033.593359279241 -999762.40853176522
 18278.200897092556 -11970.856194271455 -999761.27449203678
 18363.978793867504 -11916.835296559066 -999760.34794313228
 18444.203665431076 -11869.807549215517 -999759.43057312176
 18528.744708080238 -11828.072225480062 -999758.36196901707
 18625.474861796629 -11790.206402780002 -999757.011837953
 18740.734153128313 -11755.265154046539 -999755.2693657385
 18879.882195662569 -11722.963158525368 -999753.03059458733
 19047.865582934141 -11693.860717480427 -999750.18501536397
 19249.778709392864 -11669.54617562183 -999746.60175051074
 19491.415270536898 -11652.80501745033 -999742.11518069846
 19779.872247313902 -11647.755638557604 -999736.50850734883
 20124.264002365922 -11659.949309855841 -999729.49320326373
 20536.620167116082 -11696.425731777717 -999720.68141917139
 21032.971471946821 -11765.730365882775 -999709.54866902099
 21634.546747732606 -11877.887629178136 -999695.38469100115
 22368.753181604767 -12044.334816552313 -999677.2343511316
 23269.130977180143 -12277.787044940425 -999653.84183168435
 24372.353428636205 -12591.920672688266 -999623.6451395707
 25708.022407960692 -13000.435902468722 -999584.9569947609
 27272.124899417708 -13514.133922672225 -999536.69236691389
 28965.598037467182 -14131.479214119665 -999480.51277929021
 30468.656651673471 -14806.427361037928 -999426.05062638049
 31076.341240091286 -15352.788321570437 -999399.09591007873
 30017.84086120014 -15403.00542105245 -999430.67626225599
 13955.774809837782 -12908.362846036316 -999819.28893080074
 14466.022873758631 -13072.437660870226 -999809.90470979968
 15080.523069713758 -13091.347739912137 -999800.57733444835
 15760.301676959496 -13049.215649645816 -999790.64351592155
 16401.909756510282 -12993.266547226021 -999781.05222132104
 16943.432227347246 -12932.879834245736 -999772.80455288943
 17368.688537420734 -12869.020350137356 -999766.33118630166
 17686.371935435618 -12802.876551265277 -999761.6108852023
 17915.253336548016 -12736.25345950207 -999758.38658433
 18076.603923751529 -12670.76233050568 -999756.31439493666
 18190.766692073052 -12607.377626522491 -999755.04501679656
 18275.729630184713 -12546.393658556251 -999754.26266290504
 18346.631437298591 -12487.580968375769 -999753.70038648136
 18415.7197950589 -12430.39626223802 -999753.142787355
 18492.586056919368 -12374.17820945954 -999752.42133968719
 18584.579679460636 -12318.322903310922 -999751.40525982156
 18697.348631742116 -12262.452248073587 -999749.98945686745
 18835.427201456299 -12206.593775932915 -999748.08114370867
 19002.827394523538 -12151.368366512519 -999745.58603568503
 19203.596569103658 -12098.176053737625 -999742.39482727938
 19442.372545149188 -12049.355509928502 -999738.36936551135
 19724.982172861815 -12008.308875816645 -999733.32724093134
 20059.173601931732 -11979.586289687824 -999727.02227494854
 20455.535611124811 -11968.949428230308 -999719.11820893316
 20928.629295247054 -11983.428547482295 -999709.15266194777
 21498.222440680609 -12031.394263405966 -999696.48993280437
 22190.318077895576 -12122.623417030281 -999680.26477723895
 23037.188657862123 -12268.268631208059 -999659.33073399297
 24074.695898374812 -12480.418053295125 -999632.25647365733
 25333.225636880656 -12770.432770064597 -999597.49085604248
 26814.948568099568 -13144.022223046575 -999553.99714727304
 28444.482303285684 -13588.3314847646 -999503.01083786541
 29977.046518503659 -14042.625629979409 -999451.94048910809
 30874.158848467232 -14357.092681565357 -999420.16199651093
 30362.43110123515 -14350.788295500086 -999435.92973883066
 13475.212886797473 -12700.847419404141 -999828.53885678051
 14227.094415788482 -13043.70937331297 -999813.70836284757
 15030.276807162034 -13282.454827333242 -999798.81334839563
 15796.586222114311 -13403.456761768613 -999785.38457539107
 16467.859989957637 -13452.140003099006 -999773.89919755782
 17013.576320795102 -13460.357308790195 -999764.65080632665
 17431.540673237665 -13444.415249113541 -999757.66518110107
 17736.633462502079 -13412.522834135943 -999752.72746046574
 17950.844708686596 -13369.304740171261 -999749.48305313417
 18097.43480565233 -13317.720673912268 -999747.52871387813
 18198.066185623204 -13259.799110460124 -999746.47191908304
 18271.571718629188 -13196.940493772085 -999745.96294685511
 18333.543794965779 -13130.081256755155 -999745.70873703144
 18396.366949494906 -13059.811133870337 -999745.47511664534
 18469.511889514783 -12986.478551420032 -999745.0817610441
 18560.013367056519 -12910.303606056859 -999744.39231466257
 18673.048664243674 -12831.518118209295 -999743.30175118695
 18812.55986001603 -12750.534870454099 -999741.72237234889
 18981.853096039689 -12668.138853304483 -999739.56984358362
 19184.166816631194 -12585.6730022836 -999736.74963893939
 19423.220893069167 -12505.197504317262 -999733.14365660434
 19703.823102431201 -12429.602438403628 -999728.59533894074
 20032.60205203011 -12362.681727428169 -999722.89108308975
 20418.945239395023 -12309.183283823944 -999715.73493778519
 20876.14229593458 -12274.869844235298 -999706.71411826904
 21422.652239600102 -12266.601342115897 -999695.25379614322
 22083.198422373927 -12292.4130877316 -999680.56344410288
 22889.045935643386 -12361.428308899507 -999661.58607116633
 23876.046822599103 -12483.17994278575 -999636.98641388875
 25077.556713117869 -12665.34230161326 -999605.27472281933
 26506.41581647384 -12907.938793805248 -999565.30303760525
 28115.038491923948 -13191.268595070818 -999517.65119153843
 29714.402061821864 -13457.582237228633 -999467.83229398448
 30826.724041166603 -13603.797411359632 -999432.16367139225