# OOMMF OVF 2.0
#
# Segment count: 1
#
# Begin: Segment
# Begin: Header
#
# Title: Oxs_TimeDriver::Magnetization
# Desc: Oxs vector field output
# Desc:  MIF source file: /mnt/gpfs/work/plgrid/groups/plggspinsym/MF/switching-obrazki/p-ap/Anisotropy.mif
# Desc:  Iteration: 25400, State id: 177950
# Desc:  Stage: 0, Stage iteration: 25400
# Desc:  Stage simulation time: 3.73977e-09 s
# Desc:  Total simulation time: 3.73977e-09 s
# meshunit: m
# meshtype: rectangular
# xbase: 1.0000000000000001e-09
# ybase: 1.0000000000000001e-09
# zbase: 3.4999999999999998e-10
# xnodes: 35
# ynodes: 35
# znodes: 5
# xstepsize: 2.0000000000000001e-09
# ystepsize: 2.0000000000000001e-09
# zstepsize: 6.9999999999999996e-10
# xmin: 0
# ymin: 0
# zmin: 0
# xmax: 7.0000000000000005e-08
# ymax: 7.0000000000000005e-08
# zmax: 3.4999999999999999e-09
# valuedim: 3
# valuelabels: Magnetization_x Magnetization_y Magnetization_z
# valueunits: A/m A/m A/m
#
# End: Header
#
# Begin: Data Text
 -0 0 -0
 0 0 -0
 -0 -0 0
 -0 0 0
 0 0 0
 -0 0 -0
 0 0 0
 0 -0 0
 -0 0 0
 0 0 0
 0 0 0
 -0 -0 0
 0 0 0
 18323.279644023354 32792.781418289473 -999294.19637559145
 16040.723027469703 32474.119928607317 -999343.84810215246
 14107.436264458684 32011.565482875856 -999387.93264546676
 12788.0535018106 31596.728287700007 -999418.88737863465
 11777.955345259956 31301.063705833687 -999440.6051280729
 10719.425205511639 31158.391905863151 -999456.97683147131
 9250.947289338681 31186.708413736313 -999470.76455120335
 7083.6326783698696 31356.828971866904 -999483.1521466017
 4602.3669664754316 31500.776067907409 -999493.13120472478
 0 0 0
 -0 0 -0
 -0 0 -0
 -0 0 0
 0 -0 0
 -0 0 0
 -0 -0 0
 0 0 0
 0 -0 0
 0 -0 -0
 0 -0 0
 -0 -0 0
 0 0 -0
 -0 -0 -0
 -0 -0 -0
 -0 -0 -0
 -0 0 -0
 0 0 -0
 0 0 -0
 -0 -0 0
 0 0 0
 0 0 -0
 0 0 0
 23161.338539908233 31987.176677274041 -999219.88217071444
 21248.520284966362 30844.636112955035 -999298.30821870139
 19815.479684046437 28952.508004924915 -999384.36001626309
 18017.954679450497 28049.750622454536 -999444.12790269929
 15764.864237076479 26929.322745196292 -999513.02174212399
 14004.504428317872 26147.998709743533 -999559.98120132473
 12803.581739021758 25630.746187632594 -999589.4823098717
 11891.4836299367 25322.697532739818 -999608.60020647279
 10958.599969203251 25232.423676297454 -999621.54532709753
 9705.8708031440001 25424.357032035117 -999629.63048394083
 7928.0082286207562 26019.655904348343 -999629.99364372145
 5914.3289310017399 27089.827214472898 -999615.50706998643
 4929.8817813720088 27808.67360377323 -999601.10741136153
 3638.2134833453106 29175.507415059616 -999567.68313592637
 1461.1083045678818 29941.404026633551 -999550.58775803633
 -0 0 -0
 0 -0 0
 -0 0 -0
 0 -0 -0
 -0 0 0
 -0 0 0
 -0 0 -0
 -0 0 0
 -0 0 -0
 -0 0 0
 0 -0 -0
 -0 0 -0
 -0 0 0
 -0 0 0
 -0 -0 0
 0 0 -0
 0 -0 -0
 -0 -0 0
 28216.736968167668 30162.976994027289 -999146.64117622236
 25775.712988999705 28761.591630751234 -999253.91341078794
 22901.159730990035 27532.620457201789 -999358.54011147318
 20278.198861429162 25568.449108976492 -999467.38268994947
 18352.81204305905 23473.160273061359 -999555.99394776626
 16609.993690372961 21705.747295462439 -999626.41453892714
 14906.257435642958 20312.723333901991 -999682.54799212271
 13564.904809205147 19386.171072716708 -999720.04567711696
 12621.019610124711 18806.460020410199 -999743.48056163953
 11908.523722111759 18489.435815243542 -999758.13466357626
 11211.790168206589 18430.288202307343 -999767.28304041026
 10329.70222370088 18696.64932413038 -999771.84024957416
 9150.6181636528327 19412.760943906022 -999769.67892598058
 7801.766952840042 20657.876110170317 -999756.16256516788
 6573.4656758668016 22184.448351056573 -999732.28406427277
 4903.1102624920186 23945.548931521163 -999701.24046943255
 2376.6019838628872 25708.576716419215 -999666.6548636232
 -212.23451285362648 26722.880283410548 -999642.85753756575
 -2901.6123672556091 27730.71896091802 -999611.21836020879
 -0 0 -0
 -0 -0 -0
 0 0 -0
 -0 0 0
 -0 0 -0
 0 0 -0
 0 -0 -0
 -0 -0 -0
 -0 -0 0
 0 0 0
 0 0 0
 0 0 -0
 -0 0 0
 0 0 0
 -0 -0 -0
 31223.238824415301 26948.580702328702 -999149.07964499656
 27873.408650576192 26057.858715753129 -999271.76538184425
 24250.139775096126 23881.898804914799 -999420.62497747166
 21125.725165791118 21653.764069549339 -999542.30437627784
 18590.533929691035 19515.62458737411 -999636.7002292251
 16686.989728242785 17598.485965025742 -999705.87557818636
 15175.228482173667 15988.101190503354 -999757.01701005118
 13923.490467341924 14734.514992300828 -999794.49412424141
 12975.683386709285 13852.704015525007 -999819.85088920186
 12315.454222628128 13277.784359186111 -999836.00156715757
 11838.4831477967 12955.95100907113 -999845.98496478924
 11405.168616722747 12883.02003653254 -999851.96400445339
 10884.35478779416 13104.811558362022 -999854.88683852192
 10194.30277544491 13695.817429083863 -999854.23976491275
 9331.2711922361268 14697.875070495642 -999848.43843772088
 8274.3941561524043 16046.652474107179 -999837.00638940348
 6739.1606000055199 17715.983470659023 -999820.34768456011
 4478.7149941237303 19691.371552239787 -999796.07470643381
 1549.9738802045106 21782.967516920573 -999761.52151757071
 -2120.7926289019729 23841.515580736155 -999713.50114592258
 -5470.7020256810483 24658.33428308427 -999680.96809418662
 -0 -0 -0
 0 -0 0
 -0 0 -0
 -0 -0 -0
 0 -0 -0
 0 -0 -0
 0 0 -0
 0 -0 -0
 -0 0 -0
 0 0 -0
 -0 0 0
 -0 0 0
 -0 0 -0
 33213.845875725347 25153.838104538852 -999131.68545029848
 29995.925156380064 23579.791848454654 -999271.85384678806
 25825.080381007425 21116.617794457987 -999443.42194855504
 22092.036210887771 18627.191911628637 -999582.39763290365
 19129.841689844925 16430.773630854601 -999681.98885186133
 16865.148081288848 14535.40235463635 -999752.11370548524
 15186.375220913043 12927.972982282732 -999801.10098069953
 13938.181160205429 11599.25527512609 -999835.57867431769
 13011.599976312405 10549.707103433906 -999859.69112975465
 12364.733094740031 9770.8609557367381 -999875.8141147726
 11951.306157654832 9230.7336255252467 -999885.97341789957
 11693.904099336667 8902.9374150688382 -999891.98932299623
 11496.854613105059 8787.0881991181905 -999895.29922636726
 11266.488374834904 8910.4732404335136 -999896.8295310929
 10927.019337870195 9314.5028890644408 -999896.9148288836
 10417.968383757396 10028.404514521149 -999895.44305274636
 9646.7276437792862 11054.534837239918 -999892.3631598046
 8428.3446378131266 12412.679505312675 -999887.43786196492
 6563.2532120012056 14142.885108776954 -999878.44386609062
 3898.7391299501123 16257.377097954135 -999860.23899497639
 314.64559852348265 18748.70664024882 -999824.1780420522
 -3768.0746629892196 21242.588101854242 -999767.2499457408
 -6893.0697243046188 22680.36765173596 -999719.00377704029
 0 -0 -0
 -0 0 -0
 0 0 0
 0 0 -0
 0 -0 0
 -0 0 0
 -0 0 0
 0 -0 0
 -0 -0 -0
 -0 -0 -0
 0 0 0
 34749.28538986732 24352.646682649414 -999099.31226302194
 31643.110492502085 22359.693760264494 -999249.09689891955
 27392.093627348706 19462.389998896469 -999435.28483951441
 23299.931282912836 16694.823421089 -999589.11362276762
 19910.763416876369 14352.272425783509 -999698.74150984793
 17290.161700930363 12428.502774643059 -999773.26560932619
 15330.017344612132 10840.72991370224 -999823.71903408668
 13903.62877125257 9523.5315673693458 -999857.98564269918
 12891.686125084409 8436.8906623836992 -999881.3046081037
 12203.476589319325 7559.8422176468039 -999896.95666342461
 11778.221203646044 6877.324506698209 -999906.98363043135
 11560.592078218324 6372.3916469246287 -999912.86887183285
 11485.867808599674 6033.8297942848876 -999915.83032708149
 11480.91309634038 5864.1989102169082 -999916.8964497078
 11471.080954353758 5880.7247928057895 -999916.91223703686
 11384.433691604205 6109.1188274692777 -999916.53318498202
 11145.622992331828 6574.5410309209756 -999916.27174396242
 10655.226559426625 7300.791805071276 -999916.57881344599
 9771.5545005054664 8326.6633797233408 -999917.58830395853
 8327.6388725404267 9713.3521198795097 -999918.14726076648
 6151.1084776678836 11538.33253949165 -999914.51171922905
 3098.7624228706841 13883.85051227959 -999898.8130638015
 -757.30312454894636 16708.822368516965 -999860.11108906358
 -4858.8608669302866 19591.554780939732 -999796.26047127275
 -7881.4768052817635 21334.822709064014 -999741.32037409593
 0 -0 0
 0 0 0
 0 -0 -0
 0 -0 0
 0 -0 -0
 -0 -0 0
 0 -0 -0
 0 -0 0
 0 0 -0
 36267.654189164539 23879.61614183633 -999056.76575084252
 33136.548184104104 21776.954095164649 -999213.55747646862
 28819.929655049269 18669.780778321168 -999410.25156857749
 24560.061504538782 15664.672546721686 -999575.6206575355
 20888.193575246169 13145.730351347622 -999695.39017777459
 17944.381462177535 11127.554773125705 -999777.06349901389
 15686.806340733543 9513.6888130757525 -999831.69275233336
 14011.264003475431 8201.230094718092 -999868.20346781611
 12811.139303415977 7115.4469494456207 -999892.61679665279
 11993.50865422571 6210.0795058664453 -999908.7911718206
 11483.788952009059 5459.2209395925338 -999919.15648118185
 11222.586621732218 4847.9730946538484 -999925.27256110043
 11155.451496936153 4366.7717229938726 -999928.24102863437
 11225.27166304688 4011.9331522570537 -999928.94630992273
 11370.71287086783 3787.8461747639317 -999928.1769758088
 11527.661664809748 3707.1243771108552 -999926.68243496434
 11629.371290251574 3788.3857185026523 -999925.20013101038
 11601.929838278438 4054.0333570128146 -999924.47716693464
 11354.892919516795 4532.3494063954822 -999925.25931473717
 10773.643924384192 5265.5404914218561 -999928.09875506733
 9721.638939516828 6316.672071697385 -999932.7924367059
 8047.9130041597718 7772.0897806843805 -999937.41089966148
 5608.7448732279754 9733.8859281933455 -999936.89473170449
 2335.1517205222403 12268.778542368724 -999922.00902846444
 -1653.4897080963594 15287.674492857419 -999881.76950096746
 -5835.710141168468 18293.929664832376 -999815.62131453329
 -8938.7821387708009 20047.192282907687 -999759.07510532159
 0 -0 0
 0 -0 0
 0 0 -0
 0 0 -0
 0 0 -0
 0 -0 0
 -0 0 -0
 38246.423002603922 23112.39251311951 -999001.01523463218
 34863.64174517263 21244.671317526856 -999166.24764093908
 30341.167871267626 18204.810673678316 -999373.80313901708
 25884.484571854904 15146.710892164512 -999550.18413664389
 21990.213338252852 12526.885544610861 -999679.70253271156
 18786.581215758077 10419.314835017438 -999769.22449362895
 16253.566304653099 8752.0685402910349 -999829.59692071832
 14314.799672398884 7420.0614880369649 -999870.00614972587
 12880.473997981751 6330.9108382859176 -999897.00117439334
 11867.326303328284 5418.5724955552678 -999914.89919818693
 11203.817914553396 4641.5581342120213 -999926.46249722992
 10829.522738153453 3976.4344128253128 -999933.45248902659
 10691.643718004374 3411.1717912551085 -999937.02434784244
 10739.902705790955 2940.6571264019408 -999938.00159086625
 10922.652232307018 2565.1575947865144 -999937.05583637918
 11185.423088939735 2290.2040638914468 -999934.81851352041
 11470.788757399034 2126.3715010350347 -999931.94745918713
 11717.601310942953 2088.6921703558969 -999929.16508347495
 11858.163069191878 2196.7650049292629 -999927.27645171178
 11813.518275870147 2477.1012849651433 -999927.14972400351
 11489.190830202908 2968.0098988833734 -999929.59222702659
 10773.823318259028 3724.7499939898198 -999935.0233733136
 9540.7674352655213 4822.6404266018226 -999942.8563153306
 7656.1552142826467 6353.6287969192936 -999950.50611940084
 5001.5028623686012 8404.574862407293 -999952.17290153424
 1516.945454600216 11003.70081784431 -999938.30681937514
 -2700.7539777041793 14004.411396915348 -999898.28602182213
 -7160.0544758730948 16851.685979334219 -999832.36309871287
 -10599.795375729371 18277.138978751038 -999776.77034863341
 0 0 0
 0 0 0
 -0 0 0
 0 -0 0
 -0 0 -0
 41188.10240587563 21114.175327364628 -998928.29163080989
 37337.193223564187 20150.680348680537 -999099.5366246904
 32333.323659208912 17599.956479337154 -999322.16912919236
 27493.894211209383 14747.248777627772 -999513.18372225249
 23293.814578426271 12180.844394320735 -999654.45291471959
 19818.804516156488 10059.610852107306 -999752.9790988646
 17022.636611166792 8362.6959912491457 -999820.13140292512
 14824.655331191063 7008.7858926349472 -999865.54421813251
 13142.033111148938 5909.8434253592377 -999896.17496837804
 11900.164347274051 4992.9396443242877 -999916.72485373297
 11035.041132463686 4206.1546433059766 -999930.26563371962
 10491.68895083407 3516.7217117768582 -999938.77669153363
 10221.268227737737 2906.4596225928326 -999943.53749013192
 10177.945441938777 2367.0958181001502 -999945.40165149467
 10316.027075054746 1896.7890062776833 -999944.9893753418
 10588.053762045171 1498.202771591448 -999942.82261836703
 10944.039669198348 1177.6603686328494 -999939.41872084199
 11331.259771254112 944.76361431163912 -999935.35289723065
 11693.651919526177 812.36612125448653 -999931.29692297848
 11970.168614898772 797.27674854327699 -999928.03711723036
 12092.113546912524 922.23672361470688 -999926.46243080986
 11980.20840115301 1219.1328781082473 -999927.49153210642
 11542.142996501201 1732.5301443372459 -999931.88631743682
 10670.838983577183 2522.0582906269492 -999939.88440173992
 9244.4178755597914 3661.0396150821216 -999950.5675417555
 7130.0429504292069 5226.3699762770293 -999960.92300869233
 4195.8038141456318 7272.4713688480033 -999964.75257408083
 348.06067240077158 9773.8594251124305 -999952.17411919567
 -4356.1394776682591 12501.642711451717 -999912.36264903052
 -9417.9868581329138 14777.560885322995 -999846.45082023484
 -13388.29289995056 15239.113210607071 -999794.24035237345
 0 0 0
 -0 -0 -0
 0 -0 -0
 0 0 -0
 39989.251902110242 18354.749746912559 -999031.51246296428
 35143.848282518724 16613.309114279873 -999244.16830330726
 29730.818714171332 14213.828740326328 -999456.87525331753
 25015.984475455345 11868.334346285477 -999616.59808176896
 21147.225571716848 9839.3655321811984 -999727.95386372146
 18034.623940076846 8171.5354657537209 -999803.96995984751
 15558.673057289077 6821.9704537936368 -999855.68379232811
 13617.072187284948 5721.8307616499278 -999890.91204880015
 12130.079849128284 4804.1444576968343 -999914.88705733535
 11035.98396988029 4015.0398781774747 -999931.04087861627
 10285.195443034645 3316.4750609398134 -999941.60616901447
 9834.9787956673536 2684.755826162936 -999948.03128874791
 9645.3916612168523 2107.4106783938118 -999951.26143224316
 9676.4632258062447 1579.9264963052201 -999951.9337906728
 9886.4681817513829 1103.099660750692 -999950.51923484181
 10231.161286252285 681.28453918643174 -999947.4282131592
 10663.712105972059 321.40536047588341 -999943.0893519466
 11134.857999917549 32.542774096477771 -999938.00501745578
 11592.732675521385 -173.98094003695448 -999932.78688107163
 11981.980815377732 -283.87247789575093 -999928.17319653346
 12242.067465546777 -278.36731930245577 -999925.02433722711
 12304.921084562349 -132.03932080699857 -999924.28287481877
 12092.003144032511 189.57377797237214 -999926.8710869546
 11510.676173068443 731.68551456150271 -999933.48227286921
 10449.792426505794 1549.8513923715623 -999944.19834253972
 8774.8502712922564 2705.0349738392629 -999957.84150558384
 6324.9410794369251 4250.2786378915353 -999970.96470439667
 2921.8240687011839 6201.2353644632967 -999976.50353599107
 -1572.5280036697754 8474.3274970450984 -999962.85577472858
 -7018.5076196724149 10763.835965221879 -999917.43678471085
 -12063.564998908667 12357.7412413233 -999850.86719516804
 -0 0 -0
 -0 -0 -0
 0 0 -0
 43442.163807754463 16564.122528061791 -998918.61943232175
 38990.763182037896 15692.315837614771 -999116.3453823257
 32981.621629616835 13646.427210587675 -999362.7908117586
 27472.812072391625 11532.870472782763 -999556.02018871007
 22976.074906746788 9649.2068681598903 -999689.44817312888
 19402.859230963291 8060.744453426586 -999779.25236150005
 16573.63125119096 6750.2785204332104 -999839.86142134096
 14336.976032493516 5668.9267245564188 -999881.15013137204
 12584.654789034284 4761.3112883063541 -999909.47409185837
 11242.753201067992 3977.9581888959929 -999928.88564592774
 10259.725622256477 3280.388365133721 -999941.98685840273
 9596.4147267628541 2642.0697045978482 -999950.46291907271
 9218.859167843817 2047.1528633990615 -999955.40990626044
 9093.6408089033721 1488.2777889270776 -999957.54446179455
 9185.2842523140116 964.23901792181789 -999957.34948862728
 9455.1709603459749 477.98999222199615 -999955.18462963018
 9861.4795696969541 35.170902646896771 -999951.37380959885
 10359.673279512261 -356.80335868041323 -999946.2734871835
 10903.070268446778 -689.1624447675822 -999940.32227620773
 11443.079982083198 -951.70771209152872 -999934.07291328686
 11928.810113447375 -1132.2354320621243 -999928.20818906999
 12305.877404411127 -1215.42680439745 -999923.54113651637
 12514.316035292033 -1181.3272380223673 -999920.99505917251
 12485.391060629336 -1003.6852139058718 -999921.55073588388
 12136.935417383835 -648.64944721873337 -999926.13429821364
 11366.701672262052 -74.556194114237769 -999935.39418027783
 10043.391705490534 766.05745758868011 -999949.27043276653
 7996.4467471047283 1920.5117207221288 -999966.1836653034
 5011.4808367142832 3423.1068002090037 -999981.58353024547
 858.3130240380051 5269.6080986493535 -999985.74716304801
 -4551.0306552572683 7363.2582827916367 -999962.53457188862
 -10565.320387003667 9337.8918120504495 -999900.58394903783
 -14837.372375821484 9877.1883307552871 -999841.13414665032
 -0 -0 0
 0 0 -0
 42372.328407472225 14263.525156987009 -999000.06888659683
 37062.934988276211 13070.341945181179 -999227.45409215556
 30870.456244943925 11253.717537555285 -999460.03860725416
 25540.094573743441 9501.095951913725 -999628.64742106944
 21298.487211794261 7994.0489285730628 -999741.20132373099
 17974.543356104037 6736.7810155902825 -999815.74881209352
 15361.207915311385 5689.4051094108518 -999865.82297870517
 13300.037624198532 4803.899248407105 -999900.01077668043
 11685.269925224749 4035.6958440609023 -999923.58089297463
 10449.72466959721 3348.2294850265571 -999939.79449447116
 9549.8442807990486 2714.4427495974005 -999950.71492287656
 8953.9825513947799 2116.5669511652582 -999957.67227458709
 8634.3639227074291 1544.927794553636 -999961.52973889944
 8562.2116430143888 996.28690948654219 -999962.84728192491
 8705.3264035319771 472.12239285805231 -999961.99647419306
 9027.402608609309 -22.91010467503661 -999959.2519084313
 9488.4182570769099 -482.17221942112349 -999954.86769600236
 10045.528352602032 -897.8523187435818 -999949.13931726094
 10653.976430794177 -1261.3595871296543 -999942.4492230562
 11267.651197661466 -1563.3168780199794 -999935.29594510584
 11839.011978572504 -1793.1356395019145 -999928.30866015097
 12318.181434938413 -1938.2158075179921 -999922.24984026619
 12650.996838965693 -1982.8430801271707 -999918.00694471959
 12775.710871517787 -1906.9672339234103 -999916.56886347057
 12617.855265100965 -1685.0955620648483 -999918.97180794377
 12082.623480917691 -1285.6449368152303 -999926.17593846133
 11044.243927172152 -671.17758636489486 -999938.78522473783
 9333.0023944648128 199.78070445078674 -999956.4266276682
 6725.3514270962214 1367.712508227298 -999976.44922801899
 2958.5652322993928 2858.2579713641044 -999991.53859076987
 -2158.8110886485424 4636.9990367928767 -999986.91880174924
 -8338.0157576114289 6455.0967562320375 -999944.40306403732
 -13677.625540963434 7557.6543068183737 -999877.89475562458
 0 0 0
 -0 -0 0
 40850.213610066079 12594.401215925138 -999085.90276613587
 35169.300546821789 11125.566252581137 -999319.43945597624
 29022.989007961962 9469.1140673846021 -999533.89236574783
 23914.174267757047 8001.7769821759784 -999681.9913523593
 19906.090640229628 6776.9613797271486 -999778.88572917995
 16783.351490863723 5759.4857741158266 -999842.56132470758
 14332.835573122913 4899.7723033547518 -999885.27444692818
 12399.879661855737 4153.0380810193901 -999914.49397389428
 10885.04630301519 3483.1346000566405 -999934.68963744771
 9727.9191411352276 2862.8566810354582 -999948.58449862688
 8891.2665789180737 2273.3841857778789 -999957.88766475872
 8348.8591932049785 1703.3573665057679 -999963.69690296974
 8077.2348603583569 1147.6911602345226 -999966.71998722607
 8050.8437156186892 606.25989133665769 -999967.4076510747
 8239.8086632059931 82.569365280479104 -999966.04879140458
 8609.5075167991545 -417.44189109887321 -999962.85037124553
 9121.2586744725158 -886.39121264308403 -999958.00759372476
 9733.4870337453449 -1316.149884856801 -999951.76232638594
 10402.882883701144 -1698.2305861021073 -999944.44647719502
 11085.181638384354 -2023.8326241368943 -999936.50940924929
 11735.297882476163 -2283.5643855026433 -999928.5315047804
 12306.589628563572 -2466.8595625314347 -999921.22812530235
 12749.010869900894 -2561.1669693611475 -999915.44799827656
 13005.807820835247 -2550.9960236165389 -999912.166833775
 13008.259538257887 -2416.9384745666703 -999912.46796516923
 12667.826071574915 -2134.7481938014621 -999917.48111170123
 11865.166592142839 -1674.5559535210432 -999928.2042647358
 10436.464456338801 -1000.3334385889053 -999945.03826093522
 8161.1635308478753 -70.340464276839555 -999966.69467639865
 4766.8578299549381 1157.9328692815275 -999987.96805656597
 3.1410197906603612 2704.920241796377 -999996.34169161809
 -6040.6185422913131 4488.4037603946927 -999971.68217870558
 -11735.706025297068 6081.3357466013567 -999912.64146405528
 -0 0 -0
 45082.603752052833 12776.810115050335 -998901.55268786079
 40212.607091570011 11505.947128326914 -999124.89680298674
 33557.809661576757 9697.4838499351117 -999389.72989404749
 27452.415086913705 8140.5280200619563 -999589.9642900835
 22547.233426514715 6890.5825654079254 -999722.03243537631
 18734.397273516173 5878.871574883924 -999807.21203030157
 15768.993103854385 5037.3390051459919 -999862.97264787147
 13440.173577354848 4312.4617916602419 -999900.37724140589
 11601.069025001376 3664.3829407192939 -999925.99100890488
 10159.676363577699 3064.2686863073886 -999943.69403162168
 9061.730010897887 2492.1163021532284 -999955.83622755366
 8274.9145211743908 1935.1829129723046 -999963.88977640611
 7776.8507654638915 1386.7562793593563 -999968.79826282256
 7547.0151901738236 845.06359624392303 -999971.16379885562
 7562.050496316584 312.20646266675834 -999971.35854954168
 7793.6992970889096 -206.86664843065117 -999969.60726686916
 8208.5743784371407 -705.32051408499092 -999966.06033887295
 8769.022694137906 -1175.2477067358379 -999960.86075096834
 9434.4617755566524 -1608.2924827502497 -999954.20111437875
 10162.690344923207 -1996.0235900642474 -999946.36636910727
 10910.812342431169 -2330.0451835047497 -999937.76059486379
 11635.500575350045 -2601.8317924712733 -999928.92027267849
 12292.374560857341 -2802.32657870812 -999920.51908809331
 12834.238665747598 -2921.3376440612442 -999913.37029976735
 13207.843278761093 -2946.7990287093585 -999908.43043321115
 13348.698923216825 -2863.9205602586103 -999906.80075499136
 13173.368880199534 -2654.2187677915617 -999909.70466091554
 12568.769874783206 -2294.3112532545247 -999918.37774875807
 11378.831515825728 -1754.2875984347759 -999933.72013766819
 9391.7746151201591 -995.51685095268795 -999955.40076334309
 6340.0935421644026 31.548783883427721 -999979.90090728854
 1951.7317110012955 1386.0956618012999 -999997.13473696739
 -3827.8939792663487 3113.3315903681214 -999987.82712295663
 -10124.077537168185 5075.8005142795464 -999935.86759509763
 -14255.356805301903 6265.9181390958584 -999878.75418584025
 44473.455872639424 10401.643569918988 -998956.41423126624
 38819.085975598064 9538.2698781120871 -999200.73057006486
 32025.936589301724 8224.1295371652086 -999453.20204546547
 26100.629423542305 7017.3039171524133 -999634.6905692243
 21392.408168467937 6022.1887212403462 -999753.01855796331
 17737.528550857747 5200.7405677796223 -999829.15159463848
 14890.884053845753 4500.191987097005 -999878.99760129675
 12651.143245995594 3878.1402496812884 -999912.45046892634
 10880.569008056969 3303.9866697767602 -999935.34635502659
 9494.121735493829 2756.617406894326 -999951.1301623414
 8442.5322150691209 2222.250081050915 -999961.89190107363
 7697.0443827431855 1692.9038612099532 -999968.94430991542
 7237.8416404362379 1165.3177509030031 -999973.12748039735
 7046.2863100462564 640.07532547618189 -999974.9697631509
 7100.4468825266604 120.80878056653266 -999974.78421173547
 7373.1916042027897 -386.58646958417455 -999972.74292676069
 7832.0713957635462 -874.70423115567314 -999968.94629291329
 8440.2774720482466 -1335.3166388710697 -999963.48865629535
 9158.0526608213822 -1759.9290036817933 -999956.51541522739
 9944.077353271703 -2140.1616709087975 -999948.26617861306
 10756.465284716094 -2467.9131178023949 -999939.10207543231
 11553.103380250746 -2735.3094945694306 -999929.51945837366
 12291.102052940381 -2934.4479158141862 -999920.15572532266
 12925.10960652792 -3056.9811817139071 -999911.79431373545
 13404.16633512778 -3093.5702278599351 -999905.37459706946
 13666.670048130414 -3033.2274414742192 -999902.00602913287
 13632.940371232178 -2862.5054776973411 -999902.96979218151
 13194.975999803986 -2564.4413931659228 -999909.65404315677
 12203.720170359957 -2117.1266671844442 -999923.29055216978
 10456.615063218358 -1491.991258823442 -999944.21502577001
 7695.4354762399917 -652.97600415345903 -999970.17650286399
 3644.3353529889391 437.54611384493603 -999993.26366392768
 -1830.2688611192204 1781.5580085600459 -999996.73807815916
 -8250.893608756538 3198.251723467004 -999960.84620377549
 -13491.065937940535 4065.3302359176846 -999900.72718742001
 43765.890326986686 8067.2157576770069 -999009.24263682636
 37723.939820607171 7631.3096506101765 -999259.05924211047
 30847.909704088608 6862.2867737931892 -999500.53300992411
 25024.732639115125 6054.7193218046386 -999668.49661789148
 20443.236401324153 5324.0169040248238 -999776.83956443251
 16893.306524463656 4679.9593411897231 -999846.34528273169
 14126.489399448166 4101.4496997950355 -999891.80435065436
 11947.814873209993 3565.0503455098014 -999922.26704668871
 10226.181304300939 3052.2345749357387 -999943.05291853053
 8881.4932081369607 2550.0900896854932 -999957.30714812444
 7867.7855379605289 2050.562707845339 -999966.94602537225
 7158.4323253069333 1549.6441304770149 -999973.17736512935
 6735.0281743701553 1046.7271044178865 -999976.77160915057
 6579.9563826052672 544.08006617209503 -999978.20383790578
 6672.13050250787 46.334480477132892 -999977.74001608335
 6985.1979176604027 -440.05456729023831 -999975.50638104556
 7487.4723668520737 -907.38869881565745 -999971.5567971447
 8142.8978821296814 -1347.2965213796949 -999965.93842298689
 8912.4595852419607 -1751.2472467623052 -999958.74974781927
 9755.5689843852451 -2110.9376544699721 -999950.18516724615
 10631.076733018197 -2418.5224288631016 -999940.56371204264
 11497.640504906278 -2666.6629581093571 -999930.344159776
 12313.220336912893 -2848.4175941213089 -999920.13237165299
 13033.452960264891 -2956.9947123025318 -999910.68865484383
 13608.599328195023 -2985.4105246912331 -999902.94196403073
 13978.66069195721 -2926.060205511068 -999898.01240773196
 14066.182382226179 -2770.2027764054315 -999897.22896394064
 13766.329372926624 -2507.3447804606749 -999902.09590626811
 12934.378875689741 -2124.6371204038246 -999914.09018985566
 11372.718070430859 -1606.8609877930007 -999934.03746520018
 8825.0362282288388 -939.05862545463401 -999960.61767675052
 5000.5578385447525 -117.79613435438982 -999987.49019443954
 -307.56240405566018 814.96525745505903 -999999.62061842624
 -6820.5444786623439 1701.4138592459856 -999975.29237671371
 -12509.59088337651 2233.6478937590364 -999919.25721681013
 43230.216438256888 6345.0533942831453 -999044.98831840663
 37002.17290614864 6160.0818702090546 -999296.19862760184
 30037.478299284459 5757.151999455582 -999532.19312750269
 24225.515358749657 5266.3330205786478 -999692.64783838391
 19690.792825993969 4765.7336764874544 -999794.75916830485
 16189.78547618051 4280.9902266245381 -999859.77215253271
 13465.299521844943 3812.908860894855 -999902.06892215484
 11322.991396896075 3354.8703722683513 -999930.26492381515
 9634.3835398401625 2899.9499800112885 -999949.38319092954
 8321.5752055416378 2443.0817169543557 -999962.39066168002
 7339.9237959213715 1981.4693461229901 -999971.09923132299
 6663.4654148993905 1514.532450649632 -999976.6519374944
 6274.1264048054427 1043.7923054439723 -999979.77271316829
 6154.5679215865548 572.73332676259588 -999980.89645264472
 6284.0841083690648 106.60620401177732 -999980.24926597252
 6636.8609315611302 -347.87843366786075 -999977.91528491792
 7181.8786677530752 -782.95440114037081 -999973.90346008912
 7883.8096578634895 -1190.2740683365012 -999968.2138912821
 8704.348873039613 -1561.3782020920726 -999960.89743989822
 9603.5388212216985 -1888.1056580003365 -999952.10240247694
 10540.743966191079 -2162.883697837829 -999942.10564949631
 11475.012369090689 -2378.8864834840965 -999931.33013733895
 12364.587762568102 -2530.0605960353923 -999920.35470973502
 13165.329999359768 -2611.0535534384089 -999909.92418584845
 13827.740630140208 -2617.0708309409279 -999900.96736093378
 14292.204319353803 -2543.6929596779937 -999894.62570903974
 14481.959798862414 -2386.6616014245433 -999892.282541867
 14293.317650160301 -2141.6855250966205 -999895.55167210498
 13583.009888534581 -1804.4614566677853 -999906.11847373925
 12154.043130858388 -1371.5761975600528 -999925.19620935014
 9746.1022490924879 -843.99401236598362 -999952.14943769062
 6050.6001766997269 -236.53652893877492 -999981.66697593639
 814.75600678431317 402.85382615567534 -999999.58694063674
 -5749.1823514707976 969.92855354218659 -999983.00292599504
 -11583.963556451636 1313.3798149416414 -999932.04110168642
 42917.048890980703 5062.7178879916601 -999065.81154700497
 36579.317457945792 5031.4302930757021 -999318.0866188287
 29523.566634268242 4873.3197037616446 -999552.20462377893
 23666.903024314914 4623.1636544251269 -999709.20975004637
 19118.807074659428 4317.2240770231674 -999807.89794455573