# OOMMF OVF 2.0
#
# Segment count: 1
#
# Begin: Segment
# Begin: Header
#
# Title: Oxs_TimeDriver::Magnetization
# Desc: Oxs vector field output
# Desc:  MIF source file: /mnt/gpfs/work/plgrid/groups/plggspinsym/MF/switching-obrazki/p-ap/Anisotropy.mif
# Desc:  Iteration: 12100, State id: 84850
# Desc:  Stage: 0, Stage iteration: 12100
# Desc:  Stage simulation time: 1.77996e-09 s
# Desc:  Total simulation time: 1.77996e-09 s
# meshunit: m
# meshtype: rectangular
# xbase: 1.0000000000000001e-09
# ybase: 1.0000000000000001e-09
# zbase: 3.4999999999999998e-10
# xnodes: 35
# ynodes: 35
# znodes: 5
# xstepsize: 2.0000000000000001e-09
# ystepsize: 2.0000000000000001e-09
# zstepsize: 6.9999999999999996e-10
# xmin: 0
# ymin: 0
# zmin: 0
# xmax: 7.0000000000000005e-08
# ymax: 7.0000000000000005e-08
# zmax: 3.4999999999999999e-09
# valuedim: 3
# valuelabels: Magnetization_x Magnetization_y Magnetization_z
# valueunits: A/m A/m A/m
#
# End: Header
#
# Begin: Data Text
 -0 0 -0
 0 0 -0
 -0 -0 0
 -0 0 0
 0 0 0
 -0 0 -0
 0 0 0
 0 -0 0
 -0 0 0
 0 0 0
 0 0 0
 -0 -0 0
 0 0 0
 -17852.188999933653 15544.865439197911 -999719.78899408993
 -15426.812510853691 12754.424804806311 -999799.64898156154
 -11663.36968649833 8679.9964708059979 -999894.30614881637
 -7503.1464075976564 4126.168456223686 -999963.3380918809
 -3361.3273555677843 -442.20070947134923 -999994.25295195624
 602.24021196065291 -4761.7003766549296 -999988.48169178935
 4411.4039427542166 -8685.4859065242472 -999952.54979914997
 8178.7000528657281 -12078.452857330783 -999893.60426098236
 11553.874063041289 -14535.605063141646 -999827.59722843417
 0 0 0
 -0 0 -0
 -0 0 -0
 -0 0 0
 0 -0 0
 -0 0 0
 -0 -0 0
 0 0 0
 0 -0 0
 0 -0 -0
 0 -0 0
 -0 -0 0
 0 0 -0
 -0 -0 -0
 -0 -0 -0
 -0 -0 -0
 -0 0 -0
 0 0 -0
 0 0 -0
 -0 -0 0
 0 0 0
 0 0 -0
 0 0 0
 -16288.845164812441 35056.330790383319 -999252.58428222849
 -18961.343489898696 33234.27316926956 -999267.70714357041
 -20432.846264659514 29593.597989961847 -999353.14966809074
 -19774.170171213344 23703.926027541478 -999523.4394874993
 -17489.084474062009 19864.724198100928 -999649.70097369223
 -13881.409417823166 15948.956541975964 -999776.44364017562
 -9688.245529341224 11777.770353747137 -999883.70424967783
 -5393.0707516230059 7552.9749037843148 -999956.93275159155
 -1240.0791163528042 3472.3228954872739 -999993.20256564475
 2716.8375081481086 -340.25157690083017 -999996.25150438375
 6542.7210155218381 -3822.1258615635002 -999971.29166572168
 10193.784495379135 -6842.9791826744504 -999924.6273562659
 13112.841261227912 -8441.6820014512141 -999878.38830481994
 15812.284961162277 -11488.823577131703 -999808.9710425291
 18523.757556465916 -13799.705239842746 -999733.18367516587
 -0 0 -0
 0 -0 0
 -0 0 -0
 0 -0 -0
 -0 0 0
 -0 0 0
 -0 0 -0
 -0 0 0
 -0 0 -0
 -0 0 0
 0 -0 -0
 -0 0 -0
 -0 0 0
 -0 0 0
 -0 -0 0
 0 0 -0
 0 -0 -0
 -0 -0 0
 -3629.4744891907098 38752.939954253532 -999242.23117311974
 -8803.1574590842192 37861.950369320351 -999244.20295190171
 -15131.507000995194 36140.262348221004 -999232.1646811018
 -19606.108956557346 34409.446084471623 -999215.48752596078
 -21877.34885456035 32002.881835774584 -999248.31606628234
 -21896.626054885393 28828.646873751306 -999344.50860893854
 -19985.181514397329 25849.306884135105 -999466.06038096501
 -16646.297670244923 22697.904759619458 -999603.77444935497
 -12529.838329452465 19278.159569231826 -999735.64291519648
 -8155.0530581563289 15707.423689075687 -999843.37370943779
 -3846.3149665120641 12146.062787051205 -999918.83621619572
 249.1630513087847 8717.0228908044719 -999961.974991897
 4106.4479650623944 5482.4079321442523 -999976.53986899892
 7713.6830364181542 2468.0728666319228 -999967.20331735816
 10973.224088252706 -248.40419705890611 -999939.76150989416
 14098.426320238161 -3134.7500973075585 -999895.69841915043
 17406.458234691068 -5576.2763477722028 -999832.94622342661
 20646.377275816216 -6217.9993060466968 -999767.5047679909
 23631.474198816923 -8064.0748056254579 -999688.21345693595
 -0 0 -0
 -0 -0 -0
 0 0 -0
 -0 0 0
 -0 0 -0
 0 0 -0
 0 -0 -0
 -0 -0 -0
 -0 -0 0
 0 0 0
 0 0 0
 0 0 -0
 -0 0 0
 0 0 0
 -0 -0 -0
 4832.737486051994 36192.502348465838 -999333.15136752429
 -1870.5685662419951 36206.020315585534 -999342.59644335497
 -8813.9199420450805 35384.333037497498 -999334.91072350054
 -15224.217666840088 34400.953291517784 -999292.14827750344
 -20118.958388601688 33579.551996999005 -999233.52685998194
 -22930.894849997763 32620.840069589012 -999204.71118511679
 -23510.17472220695 31284.863238775746 -999233.97110819956
 -22082.959225519553 29642.289584425889 -999316.60527584387
 -19128.890194641037 27592.844982272585 -999436.2012983649
 -15230.466914167149 25135.819431359101 -999568.01842550491
 -10906.333881989973 22386.862403619718 -999689.89205301856
 -6531.1369407389666 19504.290223351585 -999788.44107798347
 -2324.0071544104471 16629.409028550606 -999859.02093550516
 1621.7689018112624 13856.942891350858 -999902.67276337219
 5284.2567688046638 11232.413825777887 -999922.95178681018
 8679.0432563505492 8766.5473450408263 -999923.90803290717
 11940.024185303473 6379.7126026212381 -999908.36334614293
 15259.350704029732 4206.0152023243072 -999874.72297893872
 18696.866094944435 2429.1370327076243 -999822.24744776718
 22294.730580355877 708.5839897500648 -999751.19049545447
 25357.887967018116 1045.1969754058077 -999677.89066335501
 -0 -0 -0
 0 -0 0
 -0 0 -0
 -0 -0 -0
 0 -0 -0
 0 -0 -0
 0 0 -0
 0 -0 -0
 -0 0 -0
 0 0 -0
 -0 0 0
 -0 0 0
 -0 0 -0
 12521.468562539132 32920.12852258917 -999379.5465002741
 6077.0716393728881 32679.297522196983 -999447.41368105297
 -1443.4221239321491 31889.914939411243 -999490.34505478293
 -8638.36317202383 31362.976527321724 -999470.73112975911
 -14962.764822955622 31255.649121634691 -999399.41968506179
 -19915.690050640907 31500.571716275204 -999305.29833047243
 -23051.797033359715 31820.120083692185 -999227.74911998538
 -24148.748199970993 31911.401467567346 -999198.92935128312
 -23299.240196772684 31585.266989935884 -999229.46129276417
 -20864.174380370929 30722.656340161007 -999310.16437081737
 -17338.875861313667 29324.674277302605 -999419.54496717546
 -13214.084435978741 27497.725713738393 -999534.52319221606
 -8886.5462984355163 25399.949140092795 -999637.8703703488
 -4624.6660786780822 23190.591928309521 -999720.36535707093
 -575.21718738055017 20998.160856268976 -999779.34883945342
 3207.6684113873616 18908.517257100837 -999816.07250458829
 6737.403128266059 16967.41783915128 -999833.34317823127
 10094.616951175369 15183.965792289551 -999833.75912770012
 13393.450864012311 13589.004951077786 -999817.96064003231
 16724.922903609182 12189.778014387664 -999785.82019641995
 20163.350542620108 10924.184334475351 -999737.01616551238
 23555.360466326922 10230.900557796142 -999670.1824437289
 26059.766677717089 11090.356962181466 -999598.86581726093
 0 -0 -0
 -0 0 -0
 0 0 0
 0 0 -0
 0 -0 0
 -0 0 0
 -0 0 0
 0 -0 0
 -0 -0 -0
 -0 -0 -0
 0 0 0
 18773.178922724739 29891.215517845791 -999376.84733437828
 13034.593949017097 29186.02352225365 -999489.00713891943
 5949.3900677326719 27912.682535229276 -999592.66049301799
 -1265.6568338564366 27108.899252972045 -999631.68501907296
 -8029.461751215902 27052.54737893476 -999601.76441635808
 -14012.41937379646 27676.624387423279 -999518.712464059
 -18854.331953012061 28789.462289409686 -999407.66508351942
 -22176.818453512569 30104.095968004509 -999300.72156945278
 -23721.773648984698 31301.453345399597 -999228.45059246162
 -23466.359238464767 32114.155235456703 -999208.692424963
 -21633.042271730865 32372.530711631603 -999241.72788039339
 -18606.293249408594 32034.954247163751 -999313.54817089264
 -14819.368154541064 31172.84535619292 -999404.14249686745
 -10662.214171837366 29926.727173692136 -999495.22669676866
 -6430.2253184142164 28459.373438087867 -999574.26750885614
 -2311.5490155426578 26921.105257769534 -999634.88876331691
 1600.2183878058602 25431.289663462223 -999675.29168583755
 5284.5546906716318 24073.348380140327 -999696.22755089425
 8773.5658799800804 22897.405449392147 -999699.32147893135
 12122.680858363241 21932.386260591706 -999685.95620910998
 15378.947065539187 21176.257623248875 -999657.46838616137
 18561.937454670802 20596.759964034489 -999615.54007373878
 21599.591318070394 20239.04206020018 -999561.82341632957
 24232.66761528268 20280.122506907494 -999500.62253675051
 25845.017885136531 21559.910846025901 -999433.44215351774
 0 -0 0
 0 0 0
 0 -0 -0
 0 -0 0
 0 -0 -0
 -0 -0 0
 0 -0 -0
 0 -0 0
 0 0 -0
 23785.446847437113 27279.898643303284 -999344.81519057206
 18672.729789416553 26158.843149606124 -999483.38859997352
 12256.73480793618 24368.070788388304 -999627.91556553694
 5607.9936501016127 23029.588178902126 -999719.05477265501
 -860.06763289075548 22537.286801127921 -999745.633142406
 -6943.1071065049182 22925.839192670355 -999713.05841277249
 -12434.255977464662 24077.700139206347 -999632.75938431197
 -17041.938071778819 25795.131943013861 -999521.97750464687
 -20428.405891174381 27812.584807021762 -999404.39280558378
 -22318.584881827024 29826.7869659272 -999305.88087340014
 -22604.71611749052 31554.281191261536 -999246.3931122045
 -21385.308173762667 32788.990771286568 -999233.48156400037
 -18927.077677885773 33438.895793554555 -999261.53032060794
 -15583.30486655001 33525.171564622869 -999316.37807102851
 -11709.99150707403 33152.11948450411 -999381.71539837064
 -7606.3337018142511 32466.737014165214 -999443.87269884744
 -3487.3047218355537 31623.061027886321 -999493.78223028663
 517.0920505638104 30758.307018946227 -999526.71758444724
 4346.6135222390412 29981.013484306317 -999541.01755823009
 7987.9126596132182 29367.686523793149 -999536.75882359757
 11446.192143750086 28964.219330749092 -999514.91168664827
 14715.562631867306 28783.860829072986 -999477.33419632888
 17751.301886623169 28808.347441918129 -999427.32121900481
 20436.779397678529 29006.476645660077 -999370.28290841996
 22570.990744727558 29343.306691650665 -999314.52542690525
 23907.098129474503 29883.220353950066 -999267.4535880296
 24124.197140702359 31161.856439651223 -999223.17918248428
 0 -0 0
 0 -0 0
 0 0 -0
 0 0 -0
 0 0 -0
 0 -0 0
 -0 0 -0
 28192.108489311253 24936.230924652944 -999291.44367706822
 23331.083021475344 23611.839902435218 -999448.91894556908
 17373.183538586851 21458.237363811102 -999618.78560928069
 11332.548086956871 19635.801752410196 -999742.97128981957
 5484.8713608367243 18594.5463986092 -999812.0618548193
 -129.44672975224947 18447.199812133571 -999829.82755198667
 -5466.9184385110939 19164.710206339583 -999801.39362049988
 -10394.390725206671 20644.10751363105 -999732.85304946208
 -14673.60458177076 22722.917271771756 -999634.11024196155
 -18005.445491242015 25178.396906931164 -999520.81132003397
 -20115.388356155039 27743.445695410639 -999412.66370415152
 -20841.806665760683 30147.570828799453 -999328.14584000863
 -20186.019132368827 32168.613467452764 -999278.59225501725
 -18305.816185472631 33673.368777931682 -999265.23072151828
 -15464.645298096912 34630.702218402417 -999280.52077965788
 -11964.180065792401 35097.219598425138 -999312.28531015932
 -8085.7722432982873 35187.021414386989 -999348.03437601903
 -4054.5634562390974 35038.82994696439 -999377.7268436231
 -27.897662867984444 34789.361877022995 -999394.66654666013
 3897.4801602048715 34556.055255619671 -999395.16143193911
 7666.2270357321731 34428.08854488768 -999377.77425865422
 11238.065714718605 34462.827255458113 -999342.79374824744
 14558.183924382311 34684.096006786996 -999292.28595292172
 17527.030672815388 35082.478172269701 -999230.71556126932
 19973.18546001432 35619.120260574506 -999165.82714504527
 21649.632850684575 36226.512130797826 -999109.06972976064
 22291.631567364366 36814.658413394274 -999073.45279912709
 21766.899988125842 37294.871453791151 -999067.2122675993
 20192.779231188539 37807.32096712965 -999081.00679985341
 0 0 0
 0 0 0
 -0 0 0
 0 -0 0
 -0 0 -0
 32815.997401347762 22122.584410191419 -999216.54388504219
 27722.422969872234 21218.775612833295 -999390.42962506472
 21735.623156915612 19068.13015878353 -999581.89714411506
 15979.743984195649 16980.339217224395 -999728.1209720308
 10649.663273881524 15501.590789202177 -999823.12703555578
 5648.3194284631754 14806.664987710503 -999874.42169483262
 861.59695620647017 14929.247163621549 -999888.18136320263
 -3741.8116486642589 15842.189496099865 -999867.50316107168
 -8079.5136558978274 17475.815722452899 -999814.64148306963
 -11961.702867807569 19712.574874844569 -999734.13068490685
 -15131.098338977492 22379.506720667814 -999635.037172065
 -17329.116667130646 25255.370907477954 -999530.82391483185
 -18367.753090095994 28098.781028623351 -999436.38324363925
 -18180.590030285111 30689.976782595841 -999363.59322882793
 -16835.262342096932 32870.178167764017 -999317.82998658263
 -14507.953167480706 34563.574107146815 -999297.19235061889
 -11435.401979169223 35776.693305402841 -999294.38094973075
 -7864.450653471803 36579.969975625841 -999299.78295429505
 -4014.2902941375592 37081.123418987067 -999304.19580797327
 -57.808708489439361 37399.171784802558 -999300.40458711109
 3878.8619317984712 37644.168434581436 -999283.6789485669
 7702.9523620464233 37903.963860406489 -999251.69704563287
 11332.548726197936 38236.945539947497 -999204.43820828944
 14669.059498623399 38668.938688980517 -999144.39991129085
 17568.374486131706 39193.44046545263 -999077.18742967804
 19816.865963083612 39774.705797526476 -999012.14437168976
 21127.817370816992 40350.445274810387 -998962.18992475886
 21188.315830727886 40827.852500942659 -998941.51066637447
 19804.279990716273 41054.180502898154 -998960.6322359679
 17181.233332938355 40762.456070313317 -999021.13460941124
 14095.654346775578 39733.810552813433 -999110.8731404586
 0 0 0
 -0 -0 -0
 0 -0 -0
 0 0 -0
 31405.267704543097 18660.553142936529 -999332.52369609463
 25886.941933151775 16955.017300243075 -999521.08213168674
 20029.271851969857 14905.53526408795 -999688.27805850108
 14844.854214573103 13206.204904465363 -999802.59374306945
 10256.411452299622 12110.439615393168 -999874.06370824669
 6033.6227880962679 11699.872738699314 -999913.35043290083
 2000.586249528885 11994.270327317498 -999926.0648337825
 -1913.0111848356091 12984.952652643304 -999913.86198652908
 -5663.228412845825 14635.482256385569 -999876.85766951693
 -9104.6198140511005 16870.183700028927 -999816.2345151077
 -12023.277258171305 19563.729522688704 -999736.31588091061
 -14187.383035064309 22542.363141954072 -999645.21707783523
 -15404.209669817186 25601.854233322178 -999553.5280235192
 -15566.732636999992 28538.881463463174 -999471.46486521699
 -14675.477327394561 31185.399002551603 -999405.87413436035
 -12831.141525874478 33433.934988859502 -999358.56117727014
 -10204.837821589339 35246.484824416359 -999326.54652648815
 -6999.4361242808936 36646.966339392158 -999303.76150200795
 -3415.3279679580264 37702.730245371044 -999283.16290574812
 371.00754973794079 38502.306209353337 -999258.4424311656
 4213.1803428748335 39135.102926831554 -999225.04613840859
 7987.5352526165389 39676.093325998336 -999180.667796858
 11575.83834896649 40176.260247366547 -999125.55170962086
 14842.01607129183 40658.433132468534 -999062.86407520541
 17607.333883346149 41118.066255437348 -998999.14235245169
 19630.475817349048 41528.309396978337 -998944.46489172417
 20604.57756066008 41846.856227623481 -998911.55364597274
 20193.39831024476 42017.649303953731 -998912.7808831227
 18149.408215450858 41952.741793517976 -998954.73693127627
 14614.825738823061 41490.200282755104 -999032.01657860831
 10888.655709244051 40498.664813995412 -999120.26069193939
 -0 0 -0
 -0 -0 -0
 0 0 -0
 36375.969472842393 16070.632592663929 -999208.94892559003
 30742.850596142842 15203.345418690678 -999411.69466106559
 24260.743000583796 13304.083082798263 -999617.13556860632
 18646.396340218114 11547.424866044041 -999759.45551041758
 14026.461697716843 10230.667332498393 -999849.28455151373
 10094.022851912132 9448.1411951331756 -999904.41709726548
 6546.5157440949524 9237.103578661623 -999935.90747061872
 3178.1335275892602 9616.6628600894928 -999948.70831593953
 -105.21990096738705 10595.145344565806 -999943.8643363436
 -3290.238235422039 12162.606313120083 -999920.6195193826
 -6271.0370699665627 14277.567322110761 -999878.40519006585
 -8875.8617375611648 16855.648579503835 -999818.53663021268
 -10905.486352388953 19766.985586171973 -999745.13584625861
 -12177.581238903394 22846.495038000558 -999664.81591563916
 -12566.659682064259 25915.975953844558 -999585.13457073516
 -12028.940276502008 28811.769268092077 -999512.47443314409
 -10606.364089532653 31409.160775305547 -999450.33376360999
 -8411.4913745859831 33636.307310195662 -999398.7420661432
 -5601.1738436594369 35474.997348704477 -999354.86760944058
 -2349.0457450502063 36950.307634826437 -999314.343312343
 1175.0106914537546 38114.021108507251 -999272.70589404949
 4814.2368127304762 39026.970293103965 -999226.56025230465
 8422.8245794422219 39744.14485431552 -999174.38867091818
 11854.342993066906 40304.683146680887 -999117.1137902945
 14944.213911673294 40727.606415233677 -999058.523083732
 17490.559841347178 41013.466369071379 -999005.49342475052
 19239.179003540456 41151.374033745524 -998967.67635715043
 19881.314809052288 41129.168057549163 -998956.01747842587
 19078.38068675551 40941.049837467574 -998979.40210425633
 16540.839502688934 40581.923636497166 -999039.29257187271
 12227.493803977384 40012.297883000465 -999124.36884173541
 6805.0730168590671 39041.853317846879 -999214.40375464107
 1599.5946166893839 36986.37629023716 -999314.48967078375
 -0 -0 0
 0 0 -0
 34947.684765951737 13339.100117471258 -999300.11895203718
 28967.25720042664 12061.878554501202 -999507.58331091248
 22682.172398938979 10391.679137736908 -999688.71758160961
 17532.602520987592 8980.206839066881 -999805.96304181381
 13448.623081395606 7983.8488099051947 -999877.68886769086
 10076.806425030492 7435.2454145862202 -999921.58447445161
 7101.0287146530482 7351.437331304478 -999947.76451590599
 4307.1391328372883 7752.4848723201958 -999960.67299209069
 1587.0927170075213 8658.1885295120173 -999961.25770356483
 -1069.9905613912065 10077.199272866475 -999948.65126916068
 -3592.3575528030356 11993.664689179664 -999921.62041558872
 -5847.0796846509947 14355.90058786549 -999879.85267104593
 -7669.235667690632 17071.572578973828 -999824.85677940352
 -8896.0747354759096 20012.520035409965 -999760.15068421944
 -9399.9015362857954 23029.341262548063 -999690.59778119402
 -9112.2516557817144 25972.234950034643 -999621.13317069388
 -8034.0278471489783 28712.100140154951 -999555.43603248568
 -6230.805074119713 31155.889488810826 -999495.11635539751
 -3817.2361897843684 33252.597906866082 -999439.68974636775
 -937.27408488046865 34989.722821532945 -999387.23266517767
 2253.1132031736784 36382.869472008068 -999335.38428791589
 5596.2123106372392 37462.467742393201 -999282.3654595454
 8934.1945622065614 38261.35981633082 -999227.82613002218
 12102.968069088465 38806.015443547258 -999173.46408384631
 14920.805337547759 39112.984965688142 -999123.38776306959
 17175.363942376876 39191.19710037308 -999084.10904352111
 18613.644333107866 39049.596388861246 -999063.89248461358
 18940.848271241302 38707.890292573858 -999071.04026483721
 17837.67866940075 38205.286946417968 -999110.69119944319
 15017.488895137718 37597.172695221248 -999180.12772102794
 10383.234702458099 36918.625231553327 -999264.33116974903
 4435.3177093323911 36073.373486491721 -999339.30157985957
 -827.67367212294846 34815.28671381218 -999393.42141487391
 0 0 0
 -0 -0 0
 33342.838750348245 11036.194438895463 -999383.03843740281
 27329.363776934373 9620.7057900159652 -999580.18582585466
 21376.771799875194 8194.7417280935952 -999737.90557096817
 16671.181812335155 7088.3582935703162 -999835.89997243159
 13045.035089504405 6347.9976082050325 -999894.75945515372
 10136.143988900403 5971.3937387737878 -999930.79812647693
 7634.6791024766626 5964.541854121976 -999953.06685637636
 5328.3217436529467 6347.4367535906731 -999965.65892737277
 3101.2766017676349 7146.1944932771394 -999969.65653348877
 923.88759349523525 8381.203928514793 -999964.4502943207
 -1160.7405465054144 10054.495713698347 -999948.77858684678
 -3054.0372194265547 12139.006376942423 -999921.65562150057
 -4624.2851427076475 14572.658234898643 -999883.11997897411
 -5732.8160520596184 17259.579113616746 -999834.60719707725
 -6260.4367432071249 20079.051952946749 -999778.79483636527
 -6129.1045252547528 22900.376296848262 -999718.96393095446
 -5314.5788257545501 25599.796577536774 -999658.14440092142
 -3848.2968585677072 28074.976326222895 -999598.4125215339
 -1809.9780755696881 30253.538273445862 -999540.61818482541
 685.03967698991767 32094.38519951026 -999484.6077650754
 3498.8954607283472 33582.857946376898 -999429.81213425321
 6480.7778486281068 34722.351893024359 -999375.98420088808
 9470.8853473922645 35525.50136456699 -999323.89198073931
 12298.712469544216 36007.632119310249 -999275.83384206367
 14777.193356568861 36184.309337088205 -999235.87321227649
 16695.245276503272 36073.73016967054 -999209.66507375392
 17811.792619547683 35703.479107329236 -999203.68375187193
 17854.952523130585 35119.617274606928 -999223.60518198425
 16532.330276634297 34394.018970817226 -999271.60147512425
 13567.459184163001 33622.704641023665 -999342.50274063146
 8808.9680267174499 32902.512993110729 -999419.74501259613
 2568.9593651417294 32273.599354668379 -999475.77020779974
 -3250.0782128404303 31689.853881385538 -999492.46628105536
 -0 0 -0
 39432.748348223635 10596.585717887385 -999166.03761778714
 33240.534951049987 9376.7284672548958 -999403.39393030852
 26223.685267357938 7796.254331296941 -999625.69832382782
 20407.370973906392 6576.0300686773662 -999770.12109707971
 16034.181729020716 5728.124678027847 -999855.03629473899
 12767.753337517925 5197.2750015829206 -999904.98188941425
 10227.229814144677 4953.3632901594838 -999935.43189670204
 8110.1205350335194 4994.9136909399249 -999954.637362179
 6208.9823424764172 5340.9966835404994 -999966.46058390243
 4403.8350498988402 6020.4535994938533 -999972.17980067327
 2650.5938143303774 7060.2675092211066 -999971.56308323564
 968.79769237169387 8474.1107337254452 -999963.62477757328
 -572.52976737650704 10252.548336588139 -999947.2773412962
 -1872.1328808810497 12356.794003078188 -999921.89933036373
 -2816.6504186908737 14717.724082911303 -999887.72123585874
 -3301.56325759742 17240.856151023527 -999845.91440843325
 -3249.7492396824146 19816.456501832359 -999798.35326009127
 -2624.4475490576442 22332.414880236745 -999747.1557952438
 -1434.7575599487566 24686.72012742166 -999694.2069053388
 266.16048302808946 26796.648894232123 -999640.8698961027
 2388.0724732101276 28603.049643624938 -999587.99645701377
 4812.700390558417 30069.771332415687 -999536.21583560773
 7401.7521711310601 31179.71699522014 -999486.38775767968
 10001.935963045684 31929.735784844772 -999440.06986397179
 12446.321106610952 32326.562520093452 -999399.86113994708
 14552.656821991275 32385.417674963974 -999369.50368792005
 16120.036250036415 32131.95354947944 -999353.63210046489
 16925.608520942027 31607.115974331107 -999357.05030583579
 16723.291376742247 30873.318704820904 -999383.39475782739
 15248.02515882172 30019.136704879533 -999433.01384347409
 12235.77565540626 29158.344320475022 -999499.91333196161
 7491.671113584367 28415.935137852452 -999568.11148323806
 1106.1508096469429 27876.452608160958 -999610.76415791537
 -5949.7999499717844 27345.202193745492 -999608.34320124541
 -11649.901792498727 25409.871482630893 -999609.23276021285
 38617.474413538039 8103.7627880892333 -999221.20658970915
 32114.365165651219 7256.3091001340081 -999457.85980613041
 25185.141799883164 6173.0143786573644 -999663.74472919689
 19649.657423827965 5323.1024069458181 -999792.75629696937
 15566.650219584953 4749.7089926883446 -999867.55106135237
 12581.348792523722 4411.7148091953241 -999911.1192676092
 10325.852889856262 4282.6994845265053 -999937.51567146555
 8511.7806957174034 4362.1478904089881 -999954.25958149205
 6938.9954399837561 4669.3455434176722 -999965.02316555043
 5485.8061960100531 5234.023871119939 -999971.25504911202
 4097.1986282248481 6086.3119358218055 -999973.08452298876
 2773.6075676580308 7246.8863955789584 -999969.89441614191
 1559.1686843592975 8718.3558459791893 -999960.77886302944
 528.18103654414381 10479.219285612746 -999944.95197883609
 -230.44276874057297 12481.668018533581 -999922.07439360267
 -629.68984338669452 14653.927376253687 -999892.42716561886
 -599.8861229663753 16906.832073804268 -999856.88934260362
 -100.79819471282045 19143.25696917508 -999816.74598515104
 871.28189512583049 21268.27998704214 -999773.42489898787
 2281.9111224290859 23197.895877503248 -999728.28834063013
 4061.4362252806404 24864.734636949543 -999682.57447412878
 6110.6349675278389 26220.333172563332 -999637.51143532689
 8306.9440575264198 27234.594086616169 -999594.55358928512
 10509.558256746077 27893.798341928516 -999555.64387347014
 12562.491285766668 28198.706875072603 -999523.39479537378
 14295.481630834183 28163.955874810657 -999501.09094208817
 15523.158590641428 27819.24688485355 -999492.43171228119
 16043.073972206554 27211.98018439372 -999500.93942525447
 15633.490425365153 26410.117376776878 -999528.93888934748
 14053.459186471235 25503.26813752739 -999575.9518912005
 11054.051532642374 24598.847240372634 -999636.28618570999
 6428.8333828538134 23806.390730083636 -999695.9166975437
 181.82814098210966 23187.693599894577 -999731.11275184609
 -7015.5838404292235 22613.079122278541 -999719.67582717282
 -12869.483416508105 21668.8163187182 -999682.36895322811
 37891.128803937958 5680.7666435230485 -999265.72604503192
 31259.936846860499 5308.2682572655813 -999497.19291073515
 24451.605688655887 4776.8966521569764 -999689.60194533446
 19130.275387020949 4333.1447487911182 -999807.60970308806
 15258.088150535195 4039.6425742966253 -999875.42825787177
 12474.55620840244 3888.7070687720052 -999914.62805818417
 10427.260426261451 3870.216316896709 -999938.14491980639
 8842.0057913766723 3989.6956855837284 -999952.94952408737
 7526.1373172617277 4267.8383230918507 -999962.57070608868
 6357.5379049199282 4734.4254345479521 -999968.58297028125
 5272.8792922142102 5420.5761811953498 -999971.40664012672
 4257.2328702224713 6350.7223516171653 -999970.7717198045
 3334.0673501243805 7535.3106049253174 -999966.05096822779
 2554.4326741653967 8965.2876393963707 -999956.54830160295
 1984.8202339041768 10609.371114263444 -999941.74917001999
 1694.1642186609765 12414.735364216822 -999921.49899551447
 1741.2034753669036 14311.100962639619 -999896.07489963388
 2163.7837089613431 16217.454069430138 -999866.14715349104
 2971.4463270792953 18050.035245864805 -999832.66936740384
 4141.9903684704541 19730.024289157132 -999796.76437630889
 5621.7882307177797 21189.632764256294 -999759.66860061174
 7328.8849120796085 22375.947910948395 -999722.7637705527
 9157.4942899272501 23252.632348553536 -999687.67892136844
 10982.553400314571 23800.156252025481 -999656.40901421139
 12663.322384722009 24015.479787042943 -999631.3805582429
 14045.445884724897 23911.942749638652 -999615.39826267026
 14961.16660072125 23519.682712329999 -999611.41851174191
 15227.528818854722 22886.308592408343 -999622.09821766347
 14642.748635645541 22076.959854860703 -999649.03729056846
 12982.595829121288 21172.215812062615 -999691.54716999864
 10004.24986420507 20261.159823850678 -999744.66759630525
 5480.99355017575 19424.032558346491 -999796.31209005532
 -666.69549351562557 18694.231079575777 -999825.02531266049
 -7957.2424656507474 18003.972498278366 -999806.25086394814
 -14100.489036937399 17270.935093802105 -999751.4146076038
 37536.909975483832 3800.0006309079022 -999288.01673226187
 30855.135943794026 3743.0468626379197 -999516.85838012455
 24091.153565392357 3629.0329664171118 -999703.17916850559
 18871.931172691264 3540.576411776954 -999815.64027198812
 15114.974061026025 3510.4397795323466 -999879.5999377569
 12452.613827134357 3541.908726345484 -999916.1901336764
 10541.1797482041 3636.6597740871166 -999937.82718487235
 9116.4052677705731 3806.2242109819144 -999951.20071543951
 7991.3089813159932 4072.915135780011 -999959.77436248004
 7043.5017692055408 4466.1134913639507 -999965.22085176012
 6203.1175820420322 5016.6468439089958 -999968.17678699491
 5442.8635426978444 5750.5404208732552 -999968.65276933729
 4769.2158835122382 6683.0473139938977 -999966.29516121966
 4213.5413620519257 7813.8442665258626 -999960.59417707485
 3822.4943115337442 9124.2052412469275 -999951.06751078274
 3647.7433134357107 10576.725690635903 -999937.4114625298
 3735.7386406933565 12117.725487601187 -999919.5992607685
 4118.560508269883 13681.94181578494 -999897.9157531478
 4806.9048059608358 15198.653937585757 -999872.93922011508
 5785.8929908988875 16598.157196904514 -999845.50037491519
 7013.8567287554197 17817.564281364626 -999816.65330042772
 8423.6517912067684 18805.263844488793 -999787.67953112896
 9925.6569961649257 19523.825439648874 -999760.12201597483
 11411.424292738715 19951.565657693925 -999735.82231678476
 12757.002087496732 20083.199554386825 -999716.92193010217
 13825.070271033719 19929.98470409491 -999705.78829058271
 14465.142519486191 19519.527917568485 -999704.83027830068
 14511.159173763832 18895.101793560905 -999716.16041136615
 13776.161213857009 18113.949338309205 -999741.01757484127
 12045.249014835996 17243.631382846339 -999778.76010290545
 9073.0189682259443 16354.754925532736 -999825.08586158603
 4606.4466546562653 15507.474448297538 -999869.14088067214
 -1500.3957509018348 14730.824102081773 -999890.36980754253
 -8860.6635743869465 14012.212775030695 -999862.56382273301
 -15159.637708978988 13380.657847233577 -999795.5507903141
 37576.951600025845 2271.9318231638022 -999291.15428599704
 30865.362677585963 2437.9374096570768 -999520.57800125761
 24085.107561079727 2648.0891387617598 -999706.40450968605
 18874.807037000599 2867.0550058399363 -999817.74421886995