# OOMMF OVF 2.0
#
# Segment count: 1
#
# Begin: Segment
# Begin: Header
#
# Title: Oxs_TimeDriver::Magnetization
# Desc: Oxs vector field output
# Desc:  MIF source file: /mnt/gpfs/work/plgrid/groups/plggspinsym/MF/switching-obrazki/p-ap/Anisotropy.mif
# Desc:  Iteration: 30200, State id: 211550
# Desc:  Stage: 0, Stage iteration: 30200
# Desc:  Stage simulation time: 4.44667e-09 s
# Desc:  Total simulation time: 4.44667e-09 s
# meshunit: m
# meshtype: rectangular
# xbase: 1.0000000000000001e-09
# ybase: 1.0000000000000001e-09
# zbase: 3.4999999999999998e-10
# xnodes: 35
# ynodes: 35
# znodes: 5
# xstepsize: 2.0000000000000001e-09
# ystepsize: 2.0000000000000001e-09
# zstepsize: 6.9999999999999996e-10
# xmin: 0
# ymin: 0
# zmin: 0
# xmax: 7.0000000000000005e-08
# ymax: 7.0000000000000005e-08
# zmax: 3.4999999999999999e-09
# valuedim: 3
# valuelabels: Magnetization_x Magnetization_y Magnetization_z
# valueunits: A/m A/m A/m
#
# End: Header
#
# Begin: Data Text
 -0 0 -0
 0 0 -0
 -0 -0 0
 -0 0 0
 0 0 0
 -0 0 -0
 0 0 0
 0 -0 0
 -0 0 0
 0 0 0
 0 0 0
 -0 -0 0
 0 0 0
 25071.450977161545 33990.953087490219 -999107.62055651611
 23192.474357455063 34054.865841831452 -999150.82707550912
 21501.419226158276 34030.066540896143 -999189.49331069505
 20379.036174604847 34051.322827640586 -999212.29090633267
 19558.318017211903 34166.272333848501 -999224.76852365269
 18683.508333573554 34381.873215276246 -999234.11336410954
 17381.1621818284 34686.318335187847 -999247.09382692655
 15308.551746758689 35024.806497181838 -999269.18854393368
 12682.020955777574 35224.799795583756 -999298.94417228235
 0 0 0
 -0 0 -0
 -0 0 -0
 -0 0 0
 0 -0 0
 -0 0 0
 -0 -0 0
 0 0 0
 0 -0 0
 0 -0 -0
 0 -0 0
 -0 -0 0
 0 0 -0
 -0 -0 -0
 -0 -0 -0
 -0 -0 -0
 -0 0 -0
 0 0 -0
 0 0 -0
 -0 -0 0
 0 0 0
 0 0 -0
 0 0 0
 27502.841658991863 32969.13339142521 -999077.8898284653
 26147.971753294831 32377.428431249933 -999133.61754140176
 25496.328004550494 31041.637415763944 -999192.85125787044
 24688.029231945478 30227.332801766108 -999238.11454744544
 23015.171673550769 29286.701318503794 -999306.05471933249
 21567.240432037026 28780.900911350705 -999353.04766777868
 20587.082839569975 28596.910005791542 -999379.00155960722
 19857.719350952568 28627.235887670897 -999392.89188367291
 19073.42142460325 28832.948722856952 -999402.25418152066
 17913.93459186453 29234.471901988825 -999412.0454547517
 16103.500998319361 29920.650104036122 -999422.54925179132
 13765.467978688843 31004.975573907093 -999424.4360535664
 12138.106101177505 31912.958828199502 -999416.94474283664
 10556.811608251825 33593.583211919125 -999379.82013629412
 8214.2545124831377 34560.464713707494 -999368.85097624315
 -0 0 -0
 0 -0 0
 -0 0 -0
 0 -0 -0
 -0 0 0
 -0 0 0
 -0 0 -0
 -0 0 0
 -0 0 -0
 -0 0 0
 0 -0 -0
 -0 0 -0
 -0 0 0
 -0 0 0
 -0 -0 0
 0 0 -0
 0 -0 -0
 -0 -0 0
 31021.932581229794 31360.757924280813 -999026.59752448054
 29299.514151472613 30479.216225124725 -999105.87819749594
 27328.606061418977 29447.646014283528 -999192.66582324205
 25435.517525870433 27808.037293672478 -999289.62143618043
 24258.881751600038 26056.675041005583 -999366.077241953
 23309.862418231205 24465.042119130871 -999428.89293243503
 22196.515972931029 23208.360601672306 -999484.21031892556
 21239.13110928427 22476.005924841254 -999521.74987210217
 20556.298843708388 22151.858702399259 -999543.26256239496
 20024.178338575864 22110.575373148582 -999554.9783471307
 19433.060166719533 22301.044178739066 -999562.41405981977
 18562.946793782234 22752.301021265674 -999568.78192777152
 17255.593276529471 23574.36142993439 -999573.15589397762
 15583.58607190154 24897.331120887731 -999568.54429708631
 13914.321117261516 26589.000778513266 -999549.60692576226
 11929.719821508092 28547.467348114402 -999521.24734444171
 9094.5261004646309 30416.003487400583 -999495.95113080007
 6054.7802158583418 31581.191347506116 -999482.85027288483
 3079.095889615985 32822.099840080715 -999456.46675109898
 -0 0 -0
 -0 -0 -0
 0 0 -0
 -0 0 0
 -0 0 -0
 0 0 -0
 0 -0 -0
 -0 -0 -0
 -0 -0 0
 0 0 0
 0 0 0
 0 0 -0
 -0 0 0
 0 0 0
 -0 -0 -0
 33457.11233067698 28946.575172783683 -999020.87937152712
 30889.977467656114 28169.231521555012 -999125.76970446145
 28035.55029063272 26254.443168736238 -999262.08380674629
 25708.926278122377 24200.400795033267 -999376.50148029078
 23921.891046817789 22238.427638801888 -999466.45539752778
 22747.280440159015 20519.273387396388 -999530.65018148895
 21937.427115107719 19073.121395794529 -999577.3933677125
 21263.822199484734 17973.261451100698 -999612.33072540618
 20740.029325375588 17278.559875851199 -999635.58487690846
 20371.632564956191 16932.172180043635 -999649.08749615925
 20074.886589825051 16857.140016088142 -999656.35883481649
 19715.332722919873 17017.177942891529 -999660.80312798324
 19153.345883455309 17432.371068706605 -999664.574635108
 18291.47868876567 18171.718495418798 -999667.54996563809
 17126.521995820538 19303.374489983893 -999666.97553616611
 15698.971557252378 20796.386397603208 -999660.46866165812
 13814.536861455401 22591.857988844498 -999649.32177434885
 11205.459365347913 24635.95013222819 -999633.68672804034
 7914.7775125104154 26793.282037026889 -999609.66198542295
 3904.7184259234396 28912.617906914591 -999574.3162465624
 76.160291657667273 29773.929496065532 -999556.65538376221
 -0 -0 -0
 0 -0 0
 -0 0 -0
 -0 -0 -0
 0 -0 -0
 0 -0 -0
 0 0 -0
 0 -0 -0
 -0 0 -0
 0 0 -0
 -0 0 0
 -0 0 0
 -0 0 -0
 34657.920134490138 27833.536016880415 -999011.5729283361
 32315.640824898932 26337.113103711443 -999130.65003103472
 28983.977316395492 23929.283046261349 -999293.40960091131
 26018.121211004735 21501.757892570517 -999430.20355409454
 23822.97966011109 19378.379910671832 -999528.36079430557
 22314.475114701367 17588.665851341106 -999596.27001801343
 21365.624595926154 16124.205505933734 -999641.69585028233
 20793.438892440197 14956.517218831646 -999671.91392561828
 20439.620309836144 14084.666618123963 -999691.87457328371
 20233.778489697928 13510.385723721231 -999703.98803126998
 20127.101241388689 13201.680228280386 -999710.26574441511
 20047.951236366767 13117.755245073091 -999712.96087854868
 19904.35376039139 13237.890061436967 -999714.24665656465
 19603.106415300026 13572.760822077042 -999715.7087805199
 19070.954466521449 14158.346366728107 -999717.88016614737
 18264.108276743904 15030.475861742716 -999720.21443213068
 17131.008604751951 16195.379014561164 -999722.08050175558
 15532.781149842724 17654.767719017545 -999723.48271236406
 13286.002603388772 19430.896648156591 -999722.92280925089
 10248.195608747017 21542.059724545514 -999715.41658093338
 6285.9842190904546 23983.771801102012 -999692.5852943944
 1715.9663658485272 26433.701656731952 -999649.09587122325
 -2030.2714865478049 27946.374516639531 -999607.36199223064
 0 -0 -0
 -0 0 -0
 0 0 0
 0 0 -0
 0 -0 0
 -0 0 0
 -0 0 0
 0 -0 0
 -0 -0 -0
 -0 -0 -0
 0 0 0
 35372.089833541031 27536.768523408326 -998994.7655719202
 33125.768710725344 25651.139201840491 -999121.96578044049
 29762.838056944296 22775.092150085347 -999297.48756231286
 26493.581765181698 19961.834292551281 -999449.65620932041
 23895.908777880737 17593.515754057604 -999559.62991063774
 22066.762420853727 15695.574928698281 -999633.28622246231
 20888.000955342566 14191.120670334853 -999681.10090678884
 20206.77343528183 13008.663283922444 -999711.18878749234
 19871.594113549087 12094.879888670428 -999729.3801963937
 19757.14941494208 11420.070366775331 -999739.58461181959
 19778.632600554196 10965.170719823318 -999744.25265841733
 19871.090456822702 10706.937268816144 -999745.21817229956
 19969.195454674322 10622.617347230018 -999744.16289048013
 20002.967760757474 10700.711470681697 -999742.65491414489
 19903.27412954238 10946.378667442927 -999741.98495061381
 19608.415477365346 11378.383942710818 -999742.98818312248
 19062.478548267201 12019.014211080399 -999746.05035928555
 18195.955797472187 12886.856810446348 -999751.38715290814
 16899.114115847919 14008.127839135452 -999759.06712394557
 15028.2294190303 15431.145553614964 -999767.98911919177
 12425.62771162538 17227.851940924673 -999774.37699386617
 8941.5549216231357 19485.01558762238 -999770.1649694962
 4602.07926912107 22204.228912181243 -999742.86348281405
 -90.357633326730024 25062.390151174895 -999685.88488355081
 -3796.8359079177435 26954.305782779877 -999629.45606702508
 0 -0 0
 0 0 0
 0 -0 -0
 0 -0 0
 0 -0 -0
 -0 -0 0
 0 -0 -0
 0 -0 0
 0 0 -0
 36176.88678604905 27400.867830788367 -998969.68187457498
 33807.648928040791 25447.705414606105 -999104.32746690151
 30343.744322386741 22387.351607741479 -999288.77891652961
 26926.725781869824 19325.331480534114 -999450.59057555976
 24087.175825935501 16728.277133123058 -999569.89385679679
 21977.471135808377 14672.938904400698 -999650.78683827491
 20555.004741442332 13086.411103416327 -999703.07472994784
 19695.359147289149 11866.99271010767 -999735.59870201547
 19261.943465822671 10931.229745984934 -999754.71279217303
 19130.080133764877 10220.443968974245 -999764.76361149724
 19196.540131396039 9697.4142532795358 -999768.6997519898
 19381.521991033449 9337.8643560111977 -999768.55366358638
 19620.241401589683 9122.7660180995244 -999765.88322842971
 19853.480363456118 9037.6276372098637 -999762.05199244723
 20023.434713754858 9075.4907901326933 -999758.31955987343
 20073.91423110988 9238.8499255324623 -999755.81099561264
 19950.941094957157 9538.4939229962674 -999755.45864131523
 19599.282230620418 9990.4334865148267 -999758.0004054961
 18952.496934801242 10615.449696773696 -999764.02970284503
 17921.550168067082 11445.766321411993 -999773.88067146903
 16392.564365593542 12534.499466528883 -999787.06240711256
 14231.367176149015 13962.085173363344 -999801.24443106656
 11299.020390404945 15834.470343692043 -999810.78294202848
 7513.1978230705463 18245.385052204158 -999805.30993927422
 2963.8082044888279 21167.893578392253 -999771.5419646533
 -1868.8687098550772 24197.15602570058 -999705.45910783776
 -5700.1196860881246 26162.780239444797 -999641.44450183073
 0 -0 0
 0 -0 0
 0 0 -0
 0 0 -0
 0 0 -0
 0 -0 0
 -0 0 -0
 37653.432849875659 26802.80526709518 -998931.34329864429
 34876.466023037996 25137.007619038668 -999075.45409028255
 31095.973719944832 22194.656126687463 -999269.95234412362
 27430.457096131006 19115.931720705234 -999440.91930336051
 24364.085359312143 16425.249810730435 -999568.20803447883
 22019.994408608225 14259.150103747248 -999655.83901889133
 20366.77991798224 12584.037773029933 -999713.37705819414
 19307.337860256663 11309.428137915625 -999749.63042751036
 18722.686381462692 10342.194814744045 -999771.22384127229
 18497.050187654466 9607.7428569197509 -999782.75160734355
 18528.146295689967 9052.9295315181043 -999787.35352160898
 18730.189186943022 8642.4270960994381 -999787.22159613017
 19032.873351427457 8353.0412136641626 -999783.96488164947
 19376.943896853278 8168.9223652852625 -999778.87692859781
 19709.285081640141 8079.6860350078668 -999773.10563704732
 19979.842393798146 8080.5806292842844 -999767.72808218445
 20140.289691947244 8172.8767246732768 -999763.75850356172
 20142.788896658105 8363.5650173924332 -999762.13112703199
 19936.952287876298 8664.9645488295828 -999763.69024026801
 19464.326367333131 9096.0972490184358 -999769.17386659922
 18652.314178353921 9687.2393786118464 -999779.09988607641
 17410.639419237708 10486.29738935257 -999793.43226592347
 15630.846193887612 11564.398819572987 -999810.95279417944
 13191.542425762716 13016.562512810366 -999828.26140731736
 9978.1162532667695 14946.609916569059 -999838.50498369872
 5923.0537097663309 17420.40754772846 -999830.70908810466
 1096.7011849145185 20354.353604766729 -999792.22718314978
 -4058.0401980056308 23277.613538078105 -999720.80353352847
 -8279.7395108811797 24973.760966651364 -999653.81866764883
 0 0 0
 0 0 0
 -0 0 0
 0 -0 0
 -0 0 -0
 40357.771393260962 24821.135813796445 -998876.95013203821
 36943.126296458817 24113.874706086426 -999026.38927412871
 32512.990051271699 21725.872145670546 -999235.15348362119
 28340.112991513757 18911.800663214053 -999419.42236045387
 24895.383257063539 16314.999816575613 -999556.92217775621
 22253.673509715954 14151.452153590904 -999652.19472437876
 20348.176157807975 12441.484541270633 -999715.54013602308
 19070.274911743614 11127.332027343677 -999756.2238349627
 18304.011541456915 10129.487884226854 -999781.15437164216
 17939.139142487405 9373.1588237976866 -999795.14460737922
 17877.101925352043 8798.5252157449959 -999801.47788487421
 18032.868045039544 8362.042154202556 -999802.42644288542
 18334.408936877018 8033.8714081245635 -999799.63310612063
 18720.764868552738 7794.2025573454866 -999794.37054287898
 19139.145425334686 7630.0780703588089 -999787.71497804858
 19542.002519304795 7533.574303438304 -999780.65364146268
 19884.848020589576 7501.141801965482 -999774.1373384617
 20124.771639806786 7533.4609826334499 -999769.09360715328
 20218.968849118624 7635.4607246566347 -999766.4192391145
 20122.474856442539 7816.7755940675488 -999766.96485979366
 19784.831003326184 8093.3578005667578 -999771.50290537986
 19146.261068256081 8490.6920177758693 -999780.64035875665
 18134.239318407304 9048.0605546426741 -999794.61989177659
 16660.743318401164 9822.488184232865 -999812.95168543851
 14620.984344242815 10889.879288587432 -999833.8048625309
 11895.628849716893 12338.464580961167 -999853.11736577295
 8359.6158463657302 14246.849753245278 -999863.56273994176
 3911.9016944101941 16631.187730707326 -999854.03965768882
 -1426.8152379500627 19326.335396981718 -999812.21084681689
 -7236.9911608225439 21730.012726419056 -999737.68184751738
 -12120.622449752664 22481.960162644125 -999673.77277723746
 0 0 0
 -0 -0 -0
 0 -0 -0
 0 0 -0
 39519.930891701159 22359.126292947487 -998968.59036394686
 35033.179999317639 20779.868487614051 -999170.09230899846
 30097.546699167782 18466.994207747779 -999376.35944003717
 25994.072921919331 16139.927824765733 -999531.79584380495
 22866.222791326123 14103.609834584242 -999639.04687886778
 20600.442347386554 12440.109059934073 -999710.39079408813
 19043.395453036286 11132.355026755227 -999756.68027834536
 18053.672521258301 10125.701938009517 -999785.74458168668
 17510.425175604229 9357.5999875367324 -999802.89074029122
 17311.844223039483 8771.3948697303076 -999811.66360551945
 17372.238316889376 8321.6020788862606 -999814.46092497685
 17619.255589719181 7974.4725925301154 -999812.96731905581
 17991.35389321695 7706.3364133295518 -999808.44343512796
 18435.422384996116 7501.2528274460856 -999801.91358463874
 18904.503801942639 7348.8857293690689 -999794.28564807214
 19355.790741217217 7243.0548994806786 -999786.42295267503
 19749.053197935464 7180.9792243660786 -999779.17983680987
 20045.411928179405 7163.0129403750534 -999773.4106817632
 20206.119803293383 7192.7657996426242 -999769.96196257381
 20190.973858502974 7277.7252232963992 -999769.65311526612
 19956.145439750755 7430.6430841351339 -999773.24319194688
 19451.470193750756 7671.8011207170512 -999781.36798745429
 18617.246314096152 8031.851864959267 -999794.42261661962
 17380.357790680224 8554.4628881845001 -999812.35455847543
 15649.482132578472 9297.3654862186686 -999834.31262584601
 13309.405668394937 10329.381613539497 -999858.07172630064
 10215.725655742643 11719.455577315593 -999879.13935150078
 6198.2026236189758 13509.936645052641 -999889.52584577224
 1105.9790480547124 15657.196106236188 -999876.80692195054
 -4974.5371219205817 17904.47273096328 -999827.32701034355
 -10751.027931249724 19554.612084077358 -999750.98526816303
 -0 0 -0
 -0 -0 -0
 0 0 -0
 43026.73884080592 20501.868070306184 -998863.54080542584
 38806.207468103952 19837.807313268106 -999049.81840894418
 33120.936904844661 17910.188025157517 -999290.86291402101
 28044.908330724928 15849.512433429993 -999481.00335741427
 24138.425924261133 13992.612048880039 -999610.69582210295
 21307.788047970575 12434.461178854603 -999695.63485277584
 19342.014498171775 11180.509338691825 -999750.41019550478
 18047.53763454657 10197.068532337971 -999785.13000478072
 17269.98787850474 9436.6414761884917 -999806.32990411017
 16889.286235796691 8851.2007091531686 -999818.1876003514
 16810.873653449449 8398.6286145826252 -999823.41319075041
 16958.471051344772 8045.1280379517739 -999823.82756886398
 17268.895650997176 7765.2907012743763 -999820.72668219847
 17688.415508257429 7540.9736010184997 -999815.10974477476
 18170.093077146637 7359.7725122979482 -999807.82226692711
 18671.763756180466 7213.5912417817162 -999799.64459867158
 19154.480662375023 7097.5774003347033 -999791.34336400451
 19581.342119857287 7009.4900489957618 -999783.69565123343
 19916.565277898466 6949.4670665108288 -999777.49291280948
 20124.604006733814 6920.1688284325664 -999773.53014418122
 20169.06716359494 6927.3510737755905 -999772.58440950036
 20011.22970513174 6980.9492090032199 -999775.38329058187
 19607.929729729312 7096.6768254182143 -999782.55949468794
 18908.560938373579 7297.9474177582852 -999794.58204509551
 17850.642838681364 7617.6905585542991 -999811.64493158401
 16353.266000722268 8099.3315086483244 -999833.47189430648
 14307.67796380618 8795.7842940600585 -999858.95231774379
 11565.141814576313 9764.6815934252518 -999885.44268240442
 7926.5647945419569 11056.780569292323 -999907.45430464728
 3154.8684803283322 12691.66347170241 -999914.4805848113
 -2906.5366610154297 14605.395504574271 -999889.11108522094
 -9805.6122789425935 16484.033352146085 -999816.04638667428
 -15396.743112978051 17067.480870267449 -999735.78579455486
 -0 -0 0
 0 0 -0
 42304.843716397969 18310.495594752705 -998936.94793475629
 37192.284551010722 17259.51926881964 -999159.06789884379
 31269.474402370794 15528.207869126309 -999390.36153595813
 26353.434482506542 13828.422007923153 -999557.03750998992
 22702.588678021999 12375.043250722068 -999665.66949748725
 20132.672836949085 11192.547205801813 -999734.66598467331
 18399.816799980334 10254.271838143311 -999778.12371085444
 17298.572454147965 9520.4216385470936 -999805.04147702351
 16672.913906140311 8950.0026832158183 -999820.93966562278
 16406.4788714309 8505.7195436563979 -999829.22551108
 16410.984491441915 8156.1110634939205 -999832.06461902452
 16617.176830618217 7876.1557354827091 -999830.90350569307
 16968.550945500727 7646.9264145075522 -999826.78139526804
 17417.150477651492 7454.7269054172366 -999820.51885126089
 17920.759429648282 7290.0460832741046 -999812.8332890952
 18440.988143957613 7146.5824138516837 -999804.40903012443
 18941.954480984834 7020.4885234961002 -999795.93672975653
 19389.364070401145 6909.9062005406286 -999788.13043426629
 19749.838627801884 6814.8038846190348 -999781.72733961802
 19990.317688506399 6737.125861321374 -999777.47440810106
 20077.344637322607 6681.2707161943408 -999776.10536256095
 19975.996493274135 6654.9175995482992 -999778.31124496995
 19648.156589769838 6670.1693470437758 -999784.70621604612
 19049.670585856384 6744.8977340383908 -999795.78735116078
 18125.728853318436 6904.0728741498788 -999811.87817073066
 16803.582499573171 7180.7529001267512 -999833.02426103503
 14981.656964516444 7616.2893089722947 -999858.76107166219
 12514.828753437758 8259.1039896694601 -999887.57681179326
 9199.261268879196 9160.7230226437023 -999915.72382166761
 4773.7580996977704 10364.793191096232 -999934.88902813639
 -998.15652088926186 11870.629246164726 -999929.0434050106
 -7953.7197013052273 13496.266583588817 -999877.28703637305
 -14287.789924446639 14547.744437487723 -999792.08948203654
 0 0 0
 -0 -0 0
 41151.340676194675 16627.800549392305 -999014.55615493469
 35615.134723283707 15254.877519080119 -999249.1435525578
 29710.939008036596 13674.996490279431 -999464.98416615475
 25016.650586909767 12282.388024754628 -999611.57963372057
 21611.436362376164 11149.943964137467 -999704.26855543221
 19258.417873686318 10254.841556358742 -999761.94744831952
 17703.569132473 9554.9558465070422 -999797.62275109603
 16742.338734323319 9009.4524314423325 -999819.24559421767
 16222.728852437494 8582.9642163343142 -999831.5637115289
 16033.541176339515 8246.0351181068654 -999837.45102000318
 16092.031961309494 7974.8515560836668 -999838.71111795562
 16334.371033682783 7750.7630158308493 -999836.54363881215
 16709.010593193314 7559.649546861102 -999831.81618896546
 17172.288560401015 7391.1802712157078 -999825.22620695911
 17685.565049988676 7238.0561862523327 -999817.39899418992
 18213.373390687106 7095.329903537925 -999808.9464109086
 18722.231461560441 6959.8850255129946 -999800.49912446598
 19179.891251798967 6830.1193632893228 -999792.71913784835
 19554.851313187046 6705.8585556541357 -999786.29679104465
 19815.979377761319 6588.5072999668837 -999781.93549036398
 19932.05011554663 6481.4447811753062 -999780.32799797575
 19870.955154109251 6390.6547158684107 -999782.12860281009
 19598.221200252094 6325.5598380205274 -999787.92602157465
 19074.331906536558 6299.9962383648426 -999798.21959719236
 18250.131693370866 6333.241529419327 -999813.39396154531
 17059.40945281506 6451.009106271179 -999833.66668192949
 15407.701990587857 6686.3507948058386 -999858.9377669323
 13157.001908945023 7080.4171624796163 -999888.37426663446
 10108.960932023039 7682.6875581304048 -999919.38936134195
 5999.5450018590927 8548.2128843561168 -999945.4652711089
 553.08197759690449 9720.7793544523938 -999952.59915111365
 -6227.7347001727658 11163.954971854331 -999918.28737646888
 -12810.564570072273 12530.852834441062 -999839.42068846116
 -0 0 -0
 45793.342510518232 16240.347761289264 -998818.91295985517
 40891.953991839509 15282.67648551797 -999046.68954867555
 34337.802107936484 13637.642402023461 -999317.23194194469
 28470.8903174476 12194.305352538087 -999520.23857523827
 23992.76630040981 11059.45442329624 -999650.95690101397
 20799.807919980001 10185.410459169629 -999731.77673027373
 18619.854689765005 9513.8249344267297 -999781.37017372425
 17198.167916201332 8995.7332695476052 -999811.63216041308
 16336.164014737096 8592.7758832953677 -999829.63246140257
 15888.082965289113 8275.1567846495709 -999839.53242501756
 15748.233845065521 8019.6274934668627 -999843.82715783513
 15838.709865548115 7808.0593792722593 -999844.07258258271
 16099.954669602779 7626.4631494927917 -999841.30166715255
 16484.166336726739 7464.2359889265845 -999836.26531611907
 16950.900296158688 7313.5207462918161 -999829.57517441094
 17464.225762308073 7168.6389899370015 -999821.78983734641
 17990.925445152981 7025.619891241211 -999813.46623596281
 18499.395206378929 6881.8526214160984 -999805.18726474699
 18959.001493482199 6735.8954773867144 -999797.57149859495
 19339.730697960462 6587.4550752484874 -999791.26834162825
 19611.963224551764 6437.5446124241444 -999786.94176201453
 19746.190600739319 6288.8129106223869 -999785.24633489898
 19712.405653584538 6146.0301073127175 -999786.80096171936
 19478.800367725144 6016.7009498760526 -999792.16622551798
 19009.234841599507 5911.7764610383201 -999801.83030929253
 18258.778471641555 5846.4473034936564 -999816.20114031504
 17166.43768561988 5841.0516369051293 -999835.5842502109
 15644.178306035432 5922.2196899091969 -999860.0837112529
 13561.838906429446 6124.49665278878 -999889.27740336617
 10729.726676461869 6492.7150170261248 -999921.35571611614
 6887.8380349711706 7084.9020228116369 -999951.17973355635
 1733.2492072208058 7973.0259753810778 -999966.71279797214
 -4908.7460987835402 9225.7663374826479 -999945.39323266235
 -12446.23483873931 10760.697915908509 -999864.64014820603
 -18478.138157933128 11589.011226065686 -999762.0983159038
 45548.163210674953 13709.333355038127 -998868.06886950484
 39900.657174527769 13049.858315921039 -999118.43079535628
 33184.962311534713 11906.77355418464 -999378.30025466916
 27501.269106399493 10848.942430702971 -999562.89479235525
 23235.648278420304 10011.208854710454 -999679.88893762825
 20217.662350360089 9371.8119850707553 -999751.67680239643
 18169.545320357764 8885.0030461036349 -999795.44124972005
 16843.426594245317 8510.7785524850569 -999821.9169577125
 16048.573999898963 8218.3286564636946 -999837.43796012364
 15645.68100512739 7984.4002637430403 -999845.71910786023
 15534.093413439899 7791.3168153380584 -999848.98225887388
 15639.928036195142 7625.518036655737 -999848.61060347292
 15906.96533058631 7476.5756409001096 -999845.52270371118
 16290.232589393601 7336.5131057650324 -999840.3892110145
 16751.699551028716 7199.291818234854 -999833.76156212483
 17257.483878011331 7060.4075650036857 -999826.14983566827
 17776.102429474213 6916.5778426760398 -999818.0690172402
 18277.427217056127 6765.5354041890469 -999810.06355458335
 18732.122446285117 6605.9377212108348 -999802.7151270801
 19111.381304290702 6437.4059862815348 -999796.63677610445
 19386.809291066449 6260.6884687622323 -999792.45616548287
 19530.251202199855 6077.9394834305804 -999790.79208583187
 19513.304210578437 5893.090217119252 -999792.22963897756
 19306.129155698636 5712.2897836242282 -999797.30101778684
 18875.04893256988 5544.3994701600286 -999806.47735564725
 18178.240321997804 5401.5539041232996 -999820.17122791451
 17158.703163756061 5299.8537552774769 -999838.73222430772
 15733.655021238153 5260.3335395424501 -999862.38102587173
 13779.95459511122 5310.415028801568 -999890.95022586256
 11116.944945727726 5485.9728184185051 -999923.15586614411
 7493.9886237641495 5833.3606670227819 -999954.90500213834
 2607.863072753436 6407.0866121061299 -999976.07385943946
 -3771.4986545045026 7242.9186786243836 -999966.65740759298
 -11346.429408179425 8230.9940102380915 -999901.74981209461
 -18007.155929129251 8832.2619915203668 -999798.84651036549
 45287.700109511992 11100.916790247909 -998912.30539282423
 39241.665502515949 10824.035126680797 -999171.12245709205
 32430.72468564751 10225.763183233208 -999421.67370118829
 26855.984807368153 9594.6130482235676 -999593.26702438411
 22732.951250811871 9058.7031993362325 -999700.53157121746
 19835.025635214555 8636.1003622087264 -999765.96737865836
 17875.904215941107 8308.8542601398149 -999805.68861621607
 16611.730883126398 8053.653894568436 -999829.58000651957
 15857.57204396919 7850.313432388466 -999843.44273885398
 15479.098456013788 7682.9100687861965 -999850.67405281274
 15379.53471519069 7539.1091353002139 -999853.30511300021
 15488.035847890709 7409.3137645438883 -999852.60054425662
 15750.847057090577 7286.0054637130206 -999849.40113067382
 16125.067391823397 7163.2713147409477 -999844.32275513792
 16574.440859507296 7036.4662943435551 -999837.87488386489
 17066.620582838525 6901.9634931641012 -999830.53232126322
 17571.456784697697 6756.9852997137459 -999822.77782421163
 18059.998540863635 6599.5121607040464 -999815.12435647054
 18503.976434712724 6428.2815696989592 -999808.12161742523
 18875.601915014311 6242.8741145070317 -999802.34955471917
 19147.509314001134 6043.883638659142 -999798.40185791091
 19292.652586247561 5833.150038919508 -999796.86332615081
 19283.876927099751 5614.033696654913 -999798.28701409244
 19092.800692296776 5391.7051316542747 -999803.17786927323
 18687.487797869442 5173.4402433780451 -999811.98898385512
 18028.264634633721 4968.9339530725492 -999825.13039512746
 17060.880688505942 4790.6866927992096 -999842.97550722619
 15706.2078303296 4654.5500193597654 -999865.81609719398
 13845.990668444972 4580.4856179302969 -999893.64819160302
 11305.636012978644 4593.2933000498606 -999925.53935330687
 7839.7177504076071 4721.9276642549958 -999958.12023540668
 3140.1081580129439 4992.5151933726456 -999982.60710514348
 -3070.0765720850886 5401.648932922626 -999980.69822304405
 -10648.100239608788 5849.7767997678957 -999926.19631284778
 -17600.026695990608 6089.7940707011257 -999826.56169381551
 45211.959122004337 8992.8740529922707 -998936.93843436264
 38972.29657341139 8949.5000646123935 -999200.21344492689
 32075.731659893165 8723.1804199892686 -999447.37408321933
 26526.219342142169 8434.1931859583365 -999612.53697255859
 22466.631201389868 8161.7519941554128 -999714.27732469956
 19630.095235094352 7932.2107465492099 -999775.8445740391
 17717.783472817999 7745.5682547773249 -999813.02568091254
 16484.82159218824 7593.2540024083501 -999835.28300952096
 15748.569785362646 7465.5352964198901 -999848.11263134051
 15377.393549668668 7353.7631584115588 -999854.71841414482
 15276.856679525197 7250.7178105059784 -999857.01214784977
 15378.035035262557 7150.4320839828069 -999856.18333811709
 15628.780448530579 7047.9442952327645 -999853.02305033966
 15987.578536428966 6939.1024176991932 -999848.11156004027
 16419.405727240221 6820.4228113242107 -999841.92998105416
 16893.02597465098 6689.0043113338224 -999834.92782295973
 17379.30795912593 6542.4888466311822 -999827.56287999672
 17850.246678349562 6379.0794417942834 -999820.32187738479
 18278.477786980147 6197.612525797208 -999813.72607539804
 18637.100877841323 5997.6873639917085 -999808.32473887352
 18899.653545535995 5779.8348627263149 -999804.67922730709
 19040.023939222297 5545.7083881250473 -999803.34196624265
 19032.042598487424 5298.26547685692 -999804.83582420519
 18848.371304042492 5041.9180374434582 -999809.6408625436
 18458.204515693549 4782.6342056978438 -999818.19402134884
 17823.133715702959 4528.0006364077863 -999830.9022603716
 16890.415602566984 4287.2753865167451 -999848.15503681987
 15582.803647879409 4071.473307147015 -999870.29125561123
 13784.351247286937 3893.4602989629871 -999897.4110515496
 11322.694035335653 3767.7570401500971 -999928.79776845535
 7952.2167816292695 3708.9586771978634 -999961.50219585386
 3355.1192317626942 3725.9798681808397 -999987.43004547933
 -2779.3150819439302 3807.5530490297019 -999988.88891199883
 -10372.514446462648 3900.42299925822 -999938.59693707433
 -17435.314347869797 3918.8726248447533 -999840.31337556161
 45353.917783567005 7209.2997480922422 -998944.96752264746
 39011.54208531561 7315.1587153909713 -999211.98353357159
 32042.118641307738 7348.4934989735793 -999459.50507075177
 26468.253424915692 7328.0036614038672 -999622.79481961241
 22411.349276518657 7281.2226863733986 -999722.31905654538
 19585.144230250367 7225.0853230655448 -999782.08639060683
 17681.217864914172 7166.9519398706216 -999817.98810318718