# OOMMF OVF 2.0
#
# Segment count: 1
#
# Begin: Segment
# Begin: Header
#
# Title: Oxs_TimeDriver::Magnetization
# Desc: Oxs vector field output
# Desc:  MIF source file: /mnt/gpfs/work/plgrid/groups/plggspinsym/MF/switching-obrazki/p-ap/Anisotropy.mif
# Desc:  Iteration: 49200, State id: 344550
# Desc:  Stage: 0, Stage iteration: 49200
# Desc:  Stage simulation time: 7.24247e-09 s
# Desc:  Total simulation time: 7.24247e-09 s
# meshunit: m
# meshtype: rectangular
# xbase: 1.0000000000000001e-09
# ybase: 1.0000000000000001e-09
# zbase: 3.4999999999999998e-10
# xnodes: 35
# ynodes: 35
# znodes: 5
# xstepsize: 2.0000000000000001e-09
# ystepsize: 2.0000000000000001e-09
# zstepsize: 6.9999999999999996e-10
# xmin: 0
# ymin: 0
# zmin: 0
# xmax: 7.0000000000000005e-08
# ymax: 7.0000000000000005e-08
# zmax: 3.4999999999999999e-09
# valuedim: 3
# valuelabels: Magnetization_x Magnetization_y Magnetization_z
# valueunits: A/m A/m A/m
#
# End: Header
#
# Begin: Data Text
 -0 0 -0
 0 0 -0
 -0 -0 0
 -0 0 0
 0 0 0
 -0 0 -0
 0 0 0
 0 -0 0
 -0 0 0
 0 0 0
 0 0 0
 -0 -0 0
 0 0 0
 18573.998887890044 33751.017439746167 -999257.66216081334
 16177.049876758929 33357.140128897656 -999312.56584699568
 14048.635396436261 32863.725727017998 -999361.10159183072
 12456.32931425041 32462.896431764642 -999395.31728704623
 11104.013586730296 32209.116139878362 -999419.46835137927
 9651.7175034961656 32125.801927214496 -999437.2302449845
 7768.0876049061617 32230.076105478776 -999450.28841318435
 5219.9956843383543 32497.287843732425 -999458.19218607503
 2505.7805539239566 32746.373778569752 -999460.55253229977
 0 0 0
 -0 0 -0
 -0 0 -0
 -0 0 0
 0 -0 0
 -0 0 0
 -0 -0 0
 0 0 0
 0 -0 0
 0 -0 -0
 0 -0 0
 -0 -0 0
 0 0 -0
 -0 -0 -0
 -0 -0 -0
 -0 -0 -0
 -0 0 -0
 0 0 -0
 0 0 -0
 -0 -0 0
 0 0 0
 0 0 -0
 0 0 0
 23481.099650053064 32359.765540919372 -999200.42210427485
 21516.012672375306 31075.903005383119 -999285.41941283329
 20002.480976048952 29158.115712105147 -999374.65699452371
 18165.594661739116 28457.377024594683 -999429.93194293801
 15842.20594074532 27392.999054658976 -999499.19865586795
 13923.338467322541 26648.853697968018 -999547.88741836103
 12469.051019732195 26183.912877424231 -999579.37427354651
 11225.460673441845 25944.721850034526 -999600.35036047944
 9908.5325860416615 25935.603580057585 -999614.5084225866
 8254.2289664888885 26217.751682921527 -999622.17722540628
 6105.6233454189232 26902.844053109948 -999619.40674709692
 3795.6429261176199 28013.887386707836 -999600.32773517154
 2476.1999795625184 28589.975780043169 -999588.15605155996
 776.67153719393423 29891.326523036656 -999552.85271966329
 -1650.2083167013041 30678.064031192862 -999527.9551867519
 -0 0 -0
 0 -0 0
 -0 0 -0
 0 -0 -0
 -0 0 0
 -0 0 0
 -0 0 -0
 -0 0 0
 -0 0 -0
 -0 0 0
 0 -0 -0
 -0 0 -0
 -0 0 0
 -0 0 0
 -0 -0 0
 0 0 -0
 0 -0 -0
 -0 -0 0
 28257.002561258389 30297.938022158123 -999141.41979894845
 25775.889971038145 28685.045776945481 -999256.10913567874
 23000.146624925444 27438.296054597817 -999358.86105285143
 20442.781974741119 25424.147521837564 -999467.71102818591
 18526.640018791335 23364.011074491107 -999555.34443877859
 16764.356801819617 21737.842163705009 -999623.14026791463
 14998.379440347968 20470.252189217026 -999677.95683883794
 13511.223632577894 19649.350039711357 -999715.63450761687
 12327.167962259198 19171.021055337624 -999740.22269873985
 11294.911724735759 18957.636260787956 -999756.48684893956
 10225.449998241498 19003.095329143049 -999767.13415687194
 8950.9218140680696 19368.101750060934 -999772.35290503874
 7394.0814782418684 20159.546139588045 -999769.43354882533
 5695.8319882224232 21421.675334304768 -999754.30447877222
 4103.3898205888272 22885.196685609015 -999729.67844544922
 2064.169446909154 24606.348221441698 -999695.08692985959
 -717.0661559183427 26369.312783986523 -999652.01203190128
 -3473.6181736688823 27326.488904051119 -999620.52649040788
 -6292.3789259891155 28312.671974647386 -999579.31079685106
 -0 0 -0
 -0 -0 -0
 0 0 -0
 -0 0 0
 -0 0 -0
 0 0 -0
 0 -0 -0
 -0 -0 -0
 -0 -0 0
 0 0 0
 0 0 0
 0 0 -0
 -0 0 0
 0 0 0
 -0 -0 -0
 30836.811810169998 26825.584546031867 -999164.39040387527
 27583.734159059557 25798.978494826777 -999286.52063282928
 24082.57431306837 23473.381875622636 -999434.35500175646
 21123.771511755709 21213.867391123666 -999551.77860250487
 18734.393082891198 19101.775785490612 -999642.00825978536
 16913.940043791736 17271.524750450979 -999707.76383150567
 15417.62832291128 15804.717185834192 -999756.22411244432
 14108.078236659898 14706.603110585125 -999792.31741067884
 13014.161002306664 13973.900276846542 -999817.66423906456
 12116.570195094495 13541.249141389961 -999834.89801986737
 11324.551233924096 13356.199016541907 -999846.67148877413
 10522.469577194321 13411.974964754756 -999854.68772294198
 9607.3918184014619 13746.665397702449 -999859.35371575702
 8522.8830985441491 14421.199991004616 -999859.68488308811
 7276.9366643845533 15462.357336518708 -999853.97018683702
 5845.9351628659306 16809.404559506318 -999841.621938408
 3967.9529616829391 18474.903653226902 -999821.45070222311
 1445.0780300716497 20451.517718329986 -999789.80149454612
 -1665.580667453396 22533.802588632741 -999744.69420044252
 -5405.8818975975446 24625.112914818394 -999682.13960980705
 -8629.0184761476394 25527.479070159523 -999636.87799743621
 -0 -0 -0
 0 -0 0
 -0 0 -0
 -0 -0 -0
 0 -0 -0
 0 -0 -0
 0 0 -0
 0 -0 -0
 -0 0 -0
 0 0 -0
 -0 0 0
 -0 0 0
 -0 0 -0
 32409.345833832052 24802.277695843753 -999166.89362874802
 29277.731309329458 23089.244725077751 -999304.60882926197
 25308.072135635557 20504.022015140752 -999469.40251614514
 21835.459456354729 17953.242489095843 -999600.367043979
 19131.611941305913 15771.658064367124 -999692.57085687481
 17076.888281393745 13948.459084917877 -999756.88063437759
 15529.85717156958 12461.395405698102 -999801.74892864318
 14323.819066617214 11291.346369536339 -999833.65301659552
 13345.56807440458 10418.09059411128 -999856.6693287316
 12550.612736416597 9818.3835460701994 -999873.03267189011
 11897.439531752729 9453.6262183708131 -999884.53327567363
 11323.363968356112 9293.8046979270894 -999892.69755443092
 10754.775308663353 9333.9627866824285 -999898.60083248268
 10122.877450601265 9594.5711537373209 -999902.73104762356
 9374.5377592956029 10108.853583816917 -999904.96004421357
 8465.8120355293649 10900.889743138407 -999904.74577801023
 7317.5476252542348 11978.544520516765 -999901.47913078021
 5766.943403482589 13377.505561583537 -999893.88672435167
 3641.5740791929111 15145.83172427516 -999878.66399859008
 806.18941506637793 17301.935362939581 -999849.98529345554
 -2825.2468643683856 19857.140660653717 -999798.835738939
 -6788.2628455775211 22432.368965632708 -999725.3164295326
 -9670.9505233483706 23970.576524823031 -999665.88627253007
 0 -0 -0
 -0 0 -0
 0 0 0
 0 0 -0
 0 -0 0
 -0 0 0
 -0 0 0
 0 -0 0
 -0 -0 -0
 -0 -0 -0
 0 0 0
 33632.538951970782 23794.804552641377 -999150.96937347052
 30543.596297038308 21644.447798194669 -999299.05764228315
 26484.503903090226 18631.27352212336 -999475.5858448724
 22712.079621570956 15818.959841835109 -999616.8875868324
 19677.532825909555 13486.988604620166 -999715.4074236647
 17382.68831815444 11625.549866942431 -999781.32045819145
 15679.711962105686 10145.872450073346 -999825.58874286292
 14417.949886128907 8976.5001041596533 -999855.76218120637
 13466.762831862141 8069.1169273058686 -999876.76023140154
 12732.512282997279 7390.5023591586541 -999891.62593045167
 12157.339535444631 6914.2831456842059 -999902.1911087113
 11695.478158255242 6615.309775974536 -999909.72265860951
 11298.736222890435 6476.1752404456347 -999915.19526108832
 10915.678818449551 6493.6886443347594 -999919.33672857995
 10495.482875586906 6679.2364474151718 -999922.61332549516
 9989.0813341748581 7053.5425002152124 -999925.23010087979
 9341.4154568531649 7640.0280686946116 -999927.18131290539
 8472.2515176326451 8466.3558309998007 -999928.26831386494
 7261.035968434544 9579.3054617485195 -999927.75452206342
 5562.3387963646965 11046.977401918368 -999923.5094132931
 3223.5795692587226 12953.278279853466 -999910.90658946487
 125.34669152504107 15385.705810218671 -999881.62516616355
 -3640.4752096715001 18296.42016113154 -999825.97883308411
 -7526.631437540188 21255.673294548262 -999745.7407621193
 -10279.104554991483 23091.098074135458 -999680.51956576528
 0 -0 0
 0 0 0
 0 -0 -0
 0 -0 0
 0 -0 -0
 -0 -0 0
 0 -0 -0
 0 -0 0
 0 0 -0
 35008.763432818429 23168.789687433142 -999118.4082316393
 31776.556057744008 20874.553308514056 -999276.99038318649
 27580.192496952426 17640.094054418914 -999463.93634967273
 23630.711835341557 14595.697745014555 -999614.20311312668
 20361.340525249241 12096.054503151667 -999719.51130178105
 17831.235558963133 10140.16686046778 -999789.58989103429
 15943.362216101657 8628.4971279974761 -999835.66561638424
 14557.360175614514 7456.5991115145753 -999866.23225029849
 13544.294139067815 6546.4156836262246 -999886.84186660405
 12800.126178835775 5845.5042787440534 -999900.98852313019
 12248.262520480243 5319.1399078942568 -999910.83943313127
 11834.843074391305 4943.0677193950341 -999917.74790275923
 11517.750018552471 4699.3227013877258 -999922.62590695394
 11258.061834718515 4577.0163012488729 -999926.15075589647
 11016.727387653547 4574.2601314246003 -999928.85139989667
 10753.721259225991 4698.3613149065122 -999931.1390691027
 10426.095996083191 4964.2412170646703 -999933.32419287786
 9982.3209368006428 5393.270634497163 -999935.63087859692
 9353.0876766441252 6015.9041510832767 -999938.16241213551
 8444.1805757193888 6878.6863348613588 -999940.68798539799
 7138.047232345918 8049.0948986236181 -999942.12850195565
 5300.6825829165828 9616.8351647550826 -999939.70780521026
 2803.3533239042745 11684.201267048271 -999927.80771958362
 -414.77063423296784 14311.765221608621 -999897.49541718641
 -4242.46338932872 17401.900408643971 -999839.5748151592
 -8190.457208965754 20460.433999454795 -999757.11402883346
 -11065.106968274456 22286.64754128351 -999690.38644429878
 0 -0 0
 0 -0 0
 0 0 -0
 0 0 -0
 0 0 -0
 0 -0 0
 -0 0 -0
 37089.975160226932 22344.743773461745 -999062.08324023185
 33427.1350941415 20234.603212133901 -999236.30211889581
 28888.652788578078 17036.066133203782 -999437.45086461795
 24669.167358033268 13925.816411847325 -999598.67137723067
 21165.645996860138 11323.189439958767 -999711.85889257223
 18416.997964306203 9278.4322149003983 -999787.33982863394
 16335.546258086122 7711.235678222205 -999836.83007416991
 14795.767363536743 6515.485774765385 -999869.30831646337
 13673.330974667992 5598.4605476851621 -999890.84267211554
 12862.71632250244 4891.6842706349553 -999905.30649347149
 12281.064860249768 4348.4761076096993 -999915.12949921901
 11866.377214954839 3937.9526404917083 -999921.8377557284
 11572.752373996704 3639.620409467364 -999926.40957510727
 11363.941461829258 3440.029547766927 -999929.51103123405
 11207.879997921396 3331.8587398864588 -999931.63873501378
 11073.320845942057 3314.1061482100663 -999933.19690161338
 10927.668880964018 3392.1475292278346 -999934.53755131795
 10734.464553133594 3577.5639976400148 -999935.98410428269
 10449.417858394692 3888.6222773627874 -999937.84220980702
 10015.19603596526 4352.5811185321672 -999940.37366533407
 9356.8363997349425 5009.7930833379332 -999943.67420662788
 8379.7783905033866 5917.6162479855302 -999947.3791815585
 6970.7382823720282 7152.2660841120532 -999950.12570510781
 5004.680099782795 8803.8764485117645 -999948.72115352901
 2364.5701269492456 10953.666671698058 -999937.21102605236
 -1019.4138274963869 13622.055632250806 -999906.69584506738
 -5075.4452550130818 16657.608430188924 -999848.3704726682
 -9356.6366224286248 19514.550339472615 -999765.79041101609
 -12681.71801837263 20972.617937458515 -999699.6165473666
 0 0 0
 0 0 0
 -0 0 0
 0 -0 0
 -0 0 -0
 40411.361890407556 20427.742766357169 -998974.28853581322
 36047.7918061694 19160.736994606796 -999166.36395733559
 30826.722061488534 16390.885738030342 -999390.34019329341
 26090.611890873141 13446.387438495669 -999569.14449977584
 22212.882526135156 10875.737928534922 -999694.10630171769
 19182.884066698167 8806.5902954516168 -999777.20564446331
 16878.333331962695 7203.564435398891 -999831.60108258249
 15159.338616081624 5980.9757827735129 -999867.20237309951
 13897.314120878715 5050.3032987110892 -999890.67357227439
 12983.752604355595 4337.9552758361679 -999906.29776611249
 12332.044129526763 3789.3130471175682 -999916.77743411146
 11875.575852284981 3366.4807996437817 -999923.81585058861
 11564.149619203854 3044.1636691979779 -999928.49919938773
 11359.661305078884 2805.8974635010827 -999931.54017385538
 11231.618922652191 2641.4867756891331 -999933.43442650745
 11153.306583081096 2545.7955305977175 -999934.55919744063
 11098.9368915302 2518.3832434591886 -999935.23357551335
 11041.419289476449 2563.4892672222231 -999935.75572776224
 10950.054086808052 2690.2591160043871 -999936.42738995387
 10787.633485803177 2913.5418495811964 -999937.56716990401
 10506.939830547619 3255.6213358250438 -999939.5007424776
 10047.159239385881 3748.8054158320924 -999942.49887139653
 9330.7425741766474 4438.0517966501857 -999946.61904486932
 8260.8668018852204 5382.3835585937086 -999951.39283212647
 6720.2686433920844 6652.5686941312997 -999955.28966005798
 4573.3101898269924 8320.5485306483952 -999954.9256371794
 1675.7643642513151 10434.15989301077 -999944.15850142471
 -2089.5468451567244 12962.004662928484 -999913.80639988161
 -6700.9946896743277 15674.419374707441 -999854.69406681054
 -11702.637364760832 17907.94386428906 -999771.15072663641
 -15683.922163481819 18357.901976026049 -999708.45851208456
 0 0 0
 -0 -0 -0
 0 -0 -0
 0 0 -0
 38877.234840330515 17447.229741191648 -999091.6648563972
 33700.616628066309 15460.838379974897 -999312.37904645037
 28242.516536552037 12912.545272362879 -999517.69690900005
 23744.27093623532 10522.127590037009 -999662.69032543467
 20267.157196844306 8520.6997500150792 -999758.29079579457
 17643.724609251127 6932.3319735532359 -999820.30473246635
 15690.163075421628 5705.0790235721688 -999860.62571540533
 14250.774604549277 4767.2551489970774 -999887.0879761948
 13202.226507395515 4051.0093342549712 -999904.6407226146
 12449.244286557969 3500.9291686870511 -999916.3764093722
 11919.365609496152 3075.5599960353284 -999924.23195669078
 11558.024830246954 2745.6836349780879 -999929.43415193062
 11324.123353516159 2491.5866961802112 -999932.77585346182
 11186.057676083012 2300.5013335510034 -999934.78777732374
 11118.218183652572 2164.7475345795915 -999935.84748849389
 11098.080363790059 2080.6595049943076 -999936.24970208155
 11103.892750755589 2048.130082746196 -999936.25233258959
 11112.730696094186 2070.5461589096249 -999936.10798644542
 11098.554745079247 2155.0640062068451 -999936.08684840414
 11029.962988319874 2313.3011447496083 -999936.49226052873
 10867.495989131443 2562.5623186665175 -999937.66345972242
 10560.492612259324 2927.4980694894462 -999939.95107248286
 10043.444715030557 3441.8138250507541 -999943.63997969916
 9231.6122563325771 4149.2935159755943 -999948.7790374402
 8015.7055992290825 5102.8666362500253 -999954.85358882044
 6255.9227891016744 6359.5747659244098 -999960.20882775809
 3777.8036767901012 7967.9447634538237 -999961.11927195766
 380.92926306357259 9940.307657282543 -999950.52136421984
 -4101.071903112319 12194.449521699464 -999917.23488002142
 -9550.0328462288271 14436.954366592176 -999850.17438676918
 -14586.772911003511 15984.991937557372 -999765.82562558085
 -0 0 -0
 -0 -0 -0
 0 0 -0
 42964.187557496247 15606.542359745381 -998954.71089689445
 37833.125683503662 14552.836515712561 -999178.09701292147
 31530.604952848087 12356.940396292945 -999426.39897860913
 26089.903484360715 10173.357440763035 -999607.83296978974
 21896.460458335292 8292.9842815862121 -999725.84813592862
 18773.013876111127 6766.7399327588746 -999800.87276451709
 16472.541659864917 5567.2377344641964 -999848.81918981741
 14786.727481202175 4640.7330933578232 -999879.90093148337
 13557.770379943786 3929.9547472807044 -999900.36619555694
 12669.655947364683 3384.1000918048567 -999914.01014524442
 12037.590673545501 2962.3418630989263 -999923.15751834784
 11599.479671489053 2634.0215720350047 -999929.2544983913
 11309.538421654654 2377.2962101191856 -999933.21917186992
 11133.475382911432 2177.2878338850719 -999935.65050136414
 11044.7571053343 2024.3604594330964 -999936.95566531317
 11021.650785757896 1912.8015529864665 -999937.43024460052
 11044.874910666649 1839.9938860210882 -999937.31061537412
 11095.711349947789 1806.0027501479342 -999936.8097753505
 11154.376634815515 1813.5027661937679 -999936.14350597677
 11198.407838551677 1867.9873298190334 -999935.5510657758
 11200.8229371245 1978.2903481916342 -999935.31187413807
 11127.849275471533 2157.4212701645351 -999935.75618834898
 10936.010925162767 2423.6655176447143 -999937.26278727257
 10568.269988206972 2801.7377410438503 -999940.2291812679
 9948.7485223322819 3323.6413722844145 -999944.98639218544
 8975.4565632576978 4028.6273391150426 -999951.6044995595
 7510.708006619584 4961.3405939846043 -999959.48636169767
 5370.5220554349189 6166.6396719312197 -999966.56446503673
 2320.5508036723254 7678.2456051799873 -999967.82927671925
 -1892.7635279303852 9495.2801298152099 -999953.12745222403
 -7375.0866169254405 11528.755511661573 -999906.34356110834
 -13479.952666222209 13417.341707199697 -999819.11654940282
 -17941.313152942403 13890.465024737799 -999742.5489913614
 -0 -0 0
 0 0 -0
 41636.954999175061 13131.431748960231 -999046.5101678794
 35838.035367913501 11760.021045945927 -999288.41538665246
 29497.884605429492 9850.4475693990516 -999516.30476270255
 24334.9606340393 8089.7446315241796 -999671.12878322951
 20466.533164774035 6637.0204205557156 -999768.50869596435
 17641.712267444971 5484.8748435269399 -999829.32850373199
 15592.613163050761 4588.0749775799759 -999867.90126633598
 14108.219887012803 3896.3805053140577 -999892.88243820285
 13035.497711702172 3364.0808083243601 -999909.3752734412
 12266.132665980927 2953.0706094080292 -999920.40751421626
 11723.632180481325 2633.4172194404646 -999927.80817529291
 11353.529983580253 2382.7332468318496 -999932.70770546666
 11116.416164694354 2184.9923881537984 -999935.82349064643
 10983.006333964491 2029.215855366042 -999937.62598218117
 10930.589189772991 1908.2805830515208 -999938.438447678
 10940.399200304419 1818.0016687635696 -999938.49937647174
 10995.621727804006 1756.5161889388316 -999938.0035550691
 11079.811697397665 1723.9625277688303 -999937.13088671374
 11175.526056214341 1722.4003805842758 -999936.06843352551
 11262.96151319465 1755.9611131661538 -999935.02903864789
 11318.38268044335 1831.2078459195591 -999934.26828533283
 11312.105407171863 1957.716846935454 -999934.099636573
 11205.747385762004 2148.8321293817394 -999934.90475430759
 10948.343344633615 2422.5269379118354 -999937.13059434039
 10470.761587846118 2802.21892129668 -999941.25363487611
 9677.7383273436972 3317.3508743919228 -999947.66691264557
 8437.0322596134447 4003.4233858832586 -999956.3935931623
 6566.5361570238492 4900.9231034360291 -999966.43021435128
 3825.2225112152823 6051.4927499703945 -999974.3732257525
 -69.762217655773497 7485.3087932531762 -999971.98225025414
 -5327.6215397271953 9175.6414749720952 -999943.71044186887
 -11666.155732174941 10882.962558172434 -999872.72286846105
 -17139.151341398865 11879.451452923777 -999782.54041790217
 0 0 0
 -0 -0 0
 39964.822539655986 11164.287018707833 -999138.7149213755
 33963.280054443814 9598.3692500986181 -999376.98938672896
 27811.044354373334 7932.2053663614697 -999581.72548818879
 22956.851594197251 6526.7399008746834 -999715.15174631006
 19379.338302931425 5415.0685124396605 -999797.53864467284
 16796.711131994194 4553.9918887634094 -999848.55435862148
 14940.61413762966 3891.7672265247293 -999880.80899527471
 13606.328953634653 3383.1826237501273 -999901.70611302601
 12648.327212732966 2991.5603848519436 -999915.5316251386
 11965.612803664419 2688.1190782907429 -999924.79623522365
 11488.315780930205 2450.9124411999078 -999931.00343409856
 11167.64438264105 2263.7110007669685 -999935.07755826216
 10968.824103920047 2114.9176523256356 -999937.60406392429
 10866.219791219606 1996.5681025477504 -999938.96762915514
 10839.942600514383 1903.49221168706 -999939.43434680975
 10873.44394264346 1832.6631868830807 -999939.20293309318
 10951.752422534015 1782.7616285908248 -999938.43854501902
 11060.108183562434 1753.9284229683487 -999937.29690518847
 11182.78806313649 1747.7026541084699 -999935.94334165612
 11301.928337567851 1767.1138581504374 -999934.56972167175
 11396.136714687995 1816.9384632170249 -999933.41118426551
 11438.653196716799 1904.1018571176048 -999932.76354421116
 11394.747379586368 2038.23512925364 -999933.00042038481
 11217.928519324721 2232.35691567813 -999934.58519161958
 10844.398309762604 2503.6834201073716 -999938.06337924302
 10185.071193112501 2874.5539187853183 -999943.99906422698
 9114.6431393250678 3373.5039316440757 -999952.77026050887
 7458.2613843834879 4036.3925184548698 -999964.04028972914
 4980.1837273262354 4906.8477164038768 -999975.56000910839
 1390.7283033652166 6032.4387863819102 -999980.83759493858
 -3575.3550311378522 7443.5709875040902 -999965.90446242469
 -9828.4613549832175 9077.3859994142222 -999910.49720003002
 -15681.596755171155 10542.120449733224 -999821.45967149141
 -0 0 -0
 45413.804353737913 10818.43880440754 -998909.67947855825
 39637.297638530777 9614.8146128462085 -999167.87377090694
 32588.912994971979 7883.522916996556 -999437.74834464991
 26519.517419382501 6439.889353827406 -999627.55215177685
 21916.589382443475 5335.4508506926149 -999745.56566861609
 18573.730228003704 4501.9760592202892 -999817.35769938468
 16179.519826454902 3872.9012315360355 -999861.60231015761
 14468.609932947531 3396.2240416930622 -999889.5563955385
 13244.486062725431 3032.9931880245208 -999907.68800987594
 12369.329214267569 2754.1941637545633 -999919.70383091143
 11748.56598959769 2538.2297538507678 -999927.76168426534
 11317.568202097118 2369.1303910065635 -999933.14770097577
 11031.777021885315 2235.272009676954 -999936.64972076216
 10859.784538825365 2128.3934519183895 -999938.76563571813
 10778.589706652161 2042.8258024813886 -999939.82262267999
 10770.353104016398 1974.8807810652277 -999940.04787282913
 10820.147576272328 1922.3998811382389 -999939.61256924132
 10914.35387764711 1884.4409325281301 -999938.66099966608
 11039.442103778418 1861.1072277919886 -999937.33153529384
 11180.935256902225 1853.4919394817414 -999935.77356468805
 11322.362892083042 1863.7456957820323 -999934.16310801241
 11444.006008293749 1895.2482139963256 -999932.71911698603
 11521.19203818333 1952.9030789716726 -999931.72182083689
 11521.832143121243 2043.5481110418989 -999931.53330374754
 11402.784901822904 2176.5173083108375 -999932.61736423487
 11104.506091288158 2364.381498792437 -999935.5477452518
 10543.354361117668 2623.968302204034 -999940.97449257737
 9601.0589665733369 2977.7855085466113 -999949.47495370253
 8111.7243968371649 3456.0192464871388 -999961.12717359036
 5849.724698777055 4099.0553025404915 -999974.48890787968
 2530.746856586919 4959.5824746551016 -999984.49881086929
 -2135.463487142229 6099.8570414604319 -999979.11555180454
 -8223.1441113923847 7562.4282678512127 -999937.59284248191
 -14899.742941758612 9183.7211197720699 -999846.81673077482
 -19659.621383152164 9896.9252679100427 -999757.74573509174
 44785.030915927906 8219.0820745831788 -998962.8359932669
 38474.107698891647 7384.576670409775 -999232.31085877761
 31378.480872808119 6196.1168865853706 -999488.36865350395
 25529.737939091232 5166.9942159461334 -999660.70976683567
 21155.952451055571 4380.3144967818698 -999766.5920207568
 17999.321231822061 3795.6195774531679 -999830.79453836428
 15746.956898214738 3361.7111987417356 -999870.35771957051
 14141.880314674894 3037.7188139616087 -999895.38427056093
 12996.169857964574 2793.7146690637442 -999911.64346024604
 12178.911161261054 2608.1286167667254 -999922.43288569362
 11600.802956300846 2465.3889708754973 -999929.66914078058
 11201.244098851283 2354.2460641937842 -999934.49268244929
 10938.782156504411 2266.6217620777461 -999937.60078852926
 10784.415470948255 2196.8101524957333 -999939.43336989346
 10717.008494504684 2140.8907749915006 -999940.27937453252
 10720.174032490486 2096.301453830366 -999940.33991480106
 10780.14114478679 2061.5226974976231 -999939.7675265579
 10884.257403606449 2035.87190418059 -999938.69220385794
 11019.872118398007 2019.3805687472982 -999937.24029091594
 11173.393154545045 2012.7628209730269 -999935.54995871638
 11329.333961115766 2017.4543917296735 -999933.7858427302
 11469.152342541087 2035.7384151466854 -999932.15485534258
 11569.650399816317 2070.9472930986094 -999930.92479777581
 11600.633942042627 2127.7715681737418 -999930.44652130501
 11521.436950245834 2212.6879793518769 -999931.17788301175
 11275.799089488313 2334.5744266296865 -999933.70086078218
 10784.506333262145 2505.5782297828555 -999938.70637198666
 9935.3106984523602 2742.3575389735361 -999946.8831275258
 8570.3646505904198 3067.7337206099292 -999958.56807148503
 6473.8567267556591 3512.4863692654581 -999972.87544142269
 3369.7249383450171 4115.6779670481992 -999985.85297428677
 -1040.6991756907296 4917.0524230978817 -999987.36969058472
 -6918.8932476269119 5917.4598184674733 -999958.55543393642
 -13810.37632947597 6939.3893996545748 -999880.55205629347
 -19503.703483432626 7432.9145981217198 -999782.15493726823
 44161.731514656851 5702.3913237753941 -999008.12018862867
 37616.479765527045 5299.170438903644 -999278.19912310143
 30547.807053474342 4663.1062257450067 -999522.42942544876
 24860.022227714177 4061.0079466528641 -999682.69341291254
 20649.603154361277 3581.8919433348374 -999780.35784849955
 17624.090783658423 3223.4712015551627 -999839.48744659103
 15469.874414500397 2960.2897821608581 -999875.9521410669
 13936.590797555356 2767.3547580255836 -999899.05149699247
 12842.980592196387 2625.2010571418282 -999914.07939328346
 12063.377444483682 2519.624046139932 -999924.06032623188
 11512.373967955808 2440.4323295659656 -999930.75237021607
 11132.247490278856 2380.331343374572 -999935.20144482912
 10883.70106695416 2334.1173246101393 -999938.04655458522
 10739.371475004669 2298.1106893774277 -999939.69047517132
 10679.382219274632 2269.7650720729407 -999940.39770474937
 10688.328718553454 2247.3837128662744 -999940.35266892356
 10753.226661090754 2229.927412150425 -999939.69595176657
 10862.087276983422 2216.8815767386127 -999938.54835987894
 11002.864152392454 2208.1888630715162 -999937.02845848724
 11162.573030039441 2204.2255852796402 -999935.26708128385
 11326.398460779244 2205.8359025920117 -999933.42127657623
 11476.598765129036 2214.4080877285933 -999931.6897056544
 11590.979789148032 2232.0152385617853 -999930.33122088178
 11640.650103265611 2261.6165496871404 -999929.68770596839
 11586.67385396363 2307.3589564351701 -999930.2101065095
 11375.130694765152 2374.9992482201055 -999932.48061068996
 10929.998360162586 2472.5069827234188 -999937.20895117556
 10143.32781201429 2610.8497366480738 -999945.14667783189
 8862.707738294228 2804.8429636699921 -999956.79170026875
 6877.9105791113743 3073.4060966379247 -999971.62385791261
 3914.2258729719765 3437.1219492231794 -999986.43242222129
 -344.26647852514924 3907.2886610718424 -999992.30725836626
 -6133.284294963215 4454.2274340593194 -999971.27092818148
 -13178.605515223368 4947.7757293114919 -999900.91702728556
 -19305.734164345395 5158.8174499140368 -999800.31767893233
 43804.953542808362 3729.8987755843536 -999033.13954054401
 37170.324467099344 3596.8851380726592 -999302.47142510046
 30109.455651813991 3349.8532536009384 -999540.99423862097
 24499.310372250904 3096.2222285069934 -999695.05210298789
 20377.595942971406 2887.6302674557737 -999788.18515474745
 17426.919076613729 2732.4940158387999 -999844.40587920998
 15329.415807284191 2622.6038177341266 -999879.05816664756
 13837.268133713125 2546.8350813299908 -999901.0169220072
 12772.868385486219 2495.6394661267223 -999915.30922216736
 12013.678068950361 2461.7898706233455 -999924.80273763021
 11476.662656221437 2440.0292233068326 -999931.16386662563
 11105.848505601374 2426.5703080783287 -999935.38385513239
 10863.236651912468 2418.6805426496494 -999938.06811915978
 10722.442738610016 2414.3906307657171 -999939.59814560763
 10664.344507056849 2412.287373215343 -999940.22452637833
 10674.130929119239 2411.3782099817167 -999940.12229934859
 10739.302163053693 2410.9938829437601 -999939.42541413323
 10848.284451074604 2410.7341301143315 -999938.24963615777
 10989.415415472859 2410.434275326666 -999936.70927485719
 11150.096797931745 2410.1658056672927 -999934.9311041123
 11315.937494164256 2410.2530267661232 -999933.06787953328
 11469.694867808244 2411.3230902506252 -999931.31345137581
 11589.795115862373 2414.3759587614804 -999929.92126343644
 11648.146177000472 2420.8982796531641 -999929.22746670374
 11606.872173602578 2433.0173011192123 -999929.67799998715
 11413.47986948898 2453.7288579581868 -999931.853524009
 10993.862315649749 2487.197102589897 -999936.47240310116
 10242.528377026023 2539.1175267462731 -999944.32019719563
 9009.7984283888563 2616.9670775648042 -999955.98653920519
 7087.1640748010068 2729.6142162330148 -999971.16023993772
 4196.748791377795 2884.8662797496731 -999987.03233898513
 5.5950219080492571 3082.1481059139901 -999995.25015459373
 -5766.1970890267976 3297.3698459023944 -999977.93891826901
 -12906.333594187288 3466.9145118264523 -999910.69954117585
 -19204.819644738003 3512.8634729426003 -999809.39918198087
 43749.006364073131 2086.8765858207503 -999040.37425334891
 37081.635548857812 2137.6183040735636 -999309.95336432429
 30011.610505523702 2179.8998839738115 -999547.17310958391
 24417.63788787922 2214.0006236803383 -999699.39339844289
 20320.975654638594 2245.4124799781152 -999790.98619223316
 17393.641185041815 2277.2869735955078 -999846.12576654286