# OOMMF OVF 2.0
#
# Segment count: 1
#
# Begin: Segment
# Begin: Header
#
# Title: Oxs_TimeDriver::Magnetization
# Desc: Oxs vector field output
# Desc:  MIF source file: /mnt/gpfs/work/plgrid/groups/plggspinsym/MF/switching-obrazki/p-ap/Anisotropy.mif
# Desc:  Iteration: 32900, State id: 230450
# Desc:  Stage: 0, Stage iteration: 32900
# Desc:  Stage simulation time: 4.84417e-09 s
# Desc:  Total simulation time: 4.84417e-09 s
# meshunit: m
# meshtype: rectangular
# xbase: 1.0000000000000001e-09
# ybase: 1.0000000000000001e-09
# zbase: 3.4999999999999998e-10
# xnodes: 35
# ynodes: 35
# znodes: 5
# xstepsize: 2.0000000000000001e-09
# ystepsize: 2.0000000000000001e-09
# zstepsize: 6.9999999999999996e-10
# xmin: 0
# ymin: 0
# zmin: 0
# xmax: 7.0000000000000005e-08
# ymax: 7.0000000000000005e-08
# zmax: 3.4999999999999999e-09
# valuedim: 3
# valuelabels: Magnetization_x Magnetization_y Magnetization_z
# valueunits: A/m A/m A/m
#
# End: Header
#
# Begin: Data Text
 -0 0 -0
 0 0 -0
 -0 -0 0
 -0 0 0
 0 0 0
 -0 0 -0
 0 0 0
 0 -0 0
 -0 0 0
 0 0 0
 0 0 0
 -0 -0 0
 0 0 0
 17570.372420979405 33005.980166879388 -999300.699132254
 15564.637747155819 32979.076566466829 -999334.84006143955
 13934.168561453269 32847.259569978582 -999363.24551448447
 12895.48351331224 32744.34610051291 -999380.56530203135
 12129.264864596624 32719.279879744325 -999390.9793759376
 11273.751133586518 32785.036705260944 -999398.84125588846
 9970.757731521051 32935.256599558677 -999407.75105208205
 7938.3294074630885 33116.255568373927 -999419.98006010894
 5551.2116215030301 33167.412926737808 -999434.39342924394
 0 0 0
 -0 0 -0
 -0 0 -0
 -0 0 0
 0 -0 0
 -0 0 0
 -0 -0 0
 0 0 0
 0 -0 0
 0 -0 -0
 0 -0 0
 -0 -0 0
 0 0 -0
 -0 -0 -0
 -0 -0 -0
 -0 -0 -0
 -0 0 -0
 0 0 -0
 0 0 -0
 -0 -0 0
 0 0 0
 0 0 -0
 0 0 0
 20727.875708152817 31885.211563222085 -999276.58255970164
 19255.878327544218 30983.366136002925 -999334.39957439527
 18435.527073594963 29375.669476352221 -999398.41974276456
 17234.94783027839 28656.106182286894 -999440.735687593
 15388.009628522115 27814.345714121508 -999494.6579808055
 13957.558619899772 27354.16116265635 -999528.3569886646
 13039.086088687174 27159.873994548732 -999546.0587079376
 12360.704834456294 27149.05425554857 -999554.97188950272
 11608.641731119422 27308.021969586829 -999559.65873641928
 10481.204066876269 27682.443952433805 -999561.81732703722
 8770.758158066441 28386.272407240584 -999558.54923068651
 6772.7289957136172 29530.946847070387 -999540.92128349899
 5810.9869539663614 30481.762435110653 -999518.43134054821
 4668.1294697069061 31809.98622423139 -999483.03304441751
 2664.321782670409 32403.671538270519 -999471.31197462487
 -0 0 -0
 0 -0 0
 -0 0 -0
 0 -0 -0
 -0 0 0
 -0 0 0
 -0 0 -0
 -0 0 0
 -0 0 -0
 -0 0 0
 0 -0 -0
 -0 0 -0
 -0 0 0
 -0 0 0
 -0 -0 0
 0 0 -0
 0 -0 -0
 -0 -0 0
 24458.131178029707 30085.200736090381 -999248.05754924903
 22503.917948724702 28801.01099655532 -999331.81448532583
 20333.153566794739 27677.965202437113 -999410.07254694088
 18344.526302560575 25921.478232351263 -999495.65047627094
 17071.476689078994 24066.683694835559 -999564.58491664613
 15928.210004965647 22519.622692690555 -999619.50697243633
 14691.99726858935 21386.11692637745 -999663.33293718018
 13718.383423744242 20765.254306333416 -999690.25711458863
 13068.703469508162 20513.151556000452 -999704.16604256828
 12583.555159777759 20519.110434474704 -999710.26815098722
 12047.335521066772 20757.493628821692 -999711.95259689272
 11258.474675156127 21283.253189483916 -999710.09291777259
 10108.99160601185 22221.938790500513 -999701.9524463783
 8748.8404495471314 23674.830706504101 -999681.42934727296
 7529.1525533161548 25411.619992880325 -999648.71901641844
 5933.5246546183207 27255.469457595911 -999610.89063185931
 3525.476789106272 29002.806062795815 -999573.1130106959
 1137.1424029395289 30092.676641634211 -999546.46601331013
 -1281.6472016903763 30907.09246464018 -999521.43999807863
 -0 0 -0
 -0 -0 -0
 0 0 -0
 -0 0 0
 -0 0 -0
 0 0 -0
 0 -0 -0
 -0 -0 -0
 -0 -0 0
 0 0 0
 0 0 0
 0 0 -0
 -0 0 0
 0 0 0
 -0 -0 -0
 26813.952303645616 26969.291134919422 -999276.57297543902
 23953.143182553849 26104.316341805712 -999372.20873906801
 20977.7056885454 24021.678681147496 -999491.31803001883
 18594.541198903891 21910.352482649614 -999587.00446318754
 16779.472076023612 19942.108648731155 -999660.32311955467
 15564.135619362985 18237.188717860241 -999712.53999841935
 14670.859732434919 16861.70722839221 -999750.19315029634
 13929.178075736041 15880.243037539363 -999776.87304678303
 13386.031115973263 15312.998028640981 -999793.14173599775
 13038.591540553934 15081.809440195859 -999801.24732601142
 12791.162463389586 15113.230374968305 -999803.96900115814
 12509.21696927119 15385.977585818568 -999803.37626182486
 12066.997933650946 15935.442911685028 -999800.20465094794
 11393.387964649479 16834.537192073294 -999793.37318678782
 10508.244694090159 18128.880119682595 -999780.43614538445
 9428.5057720359764 19744.624599596362 -999760.59788247687
 7897.5199355181567 21611.402820835061 -999735.25317805191
 5680.3766965836294 23713.508072527566 -999702.65722137562
 2869.5916048389572 25876.755728202224 -999661.02202546876
 -600.51811777371893 27873.938400317504 -999611.26591092674
 -3719.3663923991462 28709.394904680979 -999580.88064840762
 -0 -0 -0
 0 -0 0
 -0 0 -0
 -0 -0 -0
 0 -0 -0
 0 -0 -0
 0 0 -0
 0 -0 -0
 -0 0 -0
 0 0 -0
 -0 0 0
 -0 0 0
 -0 0 -0
 28117.438951928994 25238.091065848632 -999285.9692731289
 25373.234357351965 23642.690052342048 -999398.4301495254
 21856.149698423451 21205.845120154219 -999536.20287266234
 18882.15766216852 18791.62315750782 -999645.10653587838
 16721.084643887385 16711.293283774543 -999720.5299508035
 15236.639694064932 14981.766311362357 -999771.6696771445
 14285.921122371938 13589.607264065795 -999805.59862009867
 13685.010260023686 12518.630312902318 -999827.98740046879
 13301.796281361469 11769.815610362921 -999842.25438625424
 13089.545812008781 11332.925002347631 -999850.10306611762
 13007.685127045765 11165.990625798273 -999853.04959327902
 12986.801396517994 11228.024873788809 -999852.62636396638
 12939.545454056275 11504.636460613081 -999850.09451584856
 12782.076334036621 12012.926451067615 -999846.1422252286
 12452.465052013153 12788.670370713467 -999840.68032075884
 11910.754632924061 13856.849872679673 -999833.04688116838
 11089.940280642541 15209.61478175039 -999822.82472584222
 9827.3541053711542 16848.282206949374 -999809.76115357189
 7941.5009174119859 18804.38509818415 -999791.64212562714
 5302.4638272064567 21082.661456036814 -999763.67470682343
 1809.2903221138024 23654.734336445686 -999718.55039906234
 -2095.5505932781912 26183.007354451871 -999654.96987389994
 -4982.3167140462456 27698.56576923285 -999603.90454143786
 0 -0 -0
 -0 0 -0
 0 0 0
 0 0 -0
 0 -0 0
 -0 0 0
 -0 0 0
 0 -0 0
 -0 -0 -0
 -0 -0 -0
 0 0 0
 29004.800744703574 24543.284797616612 -999277.91364820185
 26306.312367498558 22470.829835461209 -999401.34067156899
 22693.074360780793 19550.171848621696 -999551.30691563082
 19380.555432596735 16809.233229453617 -999670.86771064892
 16838.60360318355 14543.271464618389 -999752.44670058263
 15080.218551524407 12747.631008131049 -999805.02344813175
 13951.575664784114 11343.407475762966 -999838.32725261571
 13292.911845898554 10265.300953848513 -999858.95109809574
 12959.37946956789 9469.3148593207188 -999871.18498327513
 12842.593076777555 8930.417103635782 -999877.650241978
 12875.372173252008 8627.6366923045734 -999879.88712470152
 13004.895302030856 8534.2860704195391 -999879.012010679
 13173.805525061922 8626.7880539142461 -999876.00700079848
 13318.966880791879 8895.3324071751777 -999871.73086481157
 13377.970469908811 9346.7503333411987 -999866.82521439448
 13293.936512868484 9998.7943667280015 -999861.63810959551
 13009.838392912172 10869.624254551925 -999856.28736011637
 12446.535303126482 11974.481877415405 -999850.83664650482
 11481.468538858871 13341.939238174125 -999845.07226747682
 9964.9052372137103 15025.681539558876 -999837.45156794612
 7742.1963942003977 17096.697318946764 -999823.86515614716
 4689.7631092148777 19629.774607436222 -999796.31829230126
 907.51832347267225 22584.99063627038 -999744.51466784847
 -3021.383556723616 25543.433214016877 -999669.14739880024
 -5823.6813368104958 27392.367400461084 -999607.79455938912
 0 -0 0
 0 0 0
 0 -0 -0
 0 -0 0
 0 -0 -0
 -0 -0 0
 0 -0 -0
 0 -0 0
 0 0 -0
 30001.189095135713 24268.304237217257 -999255.2116763402
 27153.017178316884 22012.864639161573 -999388.88699469331
 23402.504522583804 18830.785922302661 -999548.76033319079
 19908.494928440748 15812.651149805995 -999676.75370256498
 17110.726669743486 13332.508824222128 -999764.70593899488
 15086.955163792798 11408.003208104263 -999821.10462156683
 13748.464998614754 9946.8941514151938 -999856.00913677702
 12951.09328624119 8848.661343161386 -999876.97762030957
 12556.125321196865 8037.6217796180717 -999888.86400091799
 12446.447323455064 7463.2632436802942 -999894.68728000566
 12531.791705326939 7093.4593149602861 -999896.31314031826
 12746.365734556635 6905.1718145729583 -999894.91886036308
 13037.337729837951 6878.5207750617383 -999891.35098612867
 13354.853628458775 6998.0671609592218 -999886.33100996702
 13648.494027885747 7256.3951653683744 -999880.5245327939
 13867.60981957241 7655.4674067686547 -999874.53373744653
 13960.991440904952 8204.8333879901111 -999868.8771169259
 13871.934319506299 8918.9552080469239 -999864.00159033248
 13527.91577949348 9818.4960202315797 -999860.28655535867
 12831.557131408263 10938.416761840863 -999857.84098557103
 11662.316419203007 12336.067809857399 -999855.89552031399
 9884.931685776779 14093.424624759531 -999851.8207754154
 7373.0183780925017 16308.689030538615 -999839.81980220298
 4079.7449157737387 19044.456181259917 -999810.31419473898
 149.34274935258301 22202.251722670928 -999753.48847362678
 -3889.3992895563701 25284.68835483992 -999672.72499951941
 -6834.0595030397535 27137.478729915245 -999608.34974448499
 0 -0 0
 0 -0 0
 0 0 -0
 0 0 -0
 0 0 -0
 0 -0 0
 -0 0 -0
 31657.497310955005 23833.525834682419 -999214.57450854592
 28373.691129032246 21718.503041924971 -999361.41624405934
 24282.240150275149 18536.594121366958 -999533.2748296397
 20522.279640739293 15421.872436812708 -999670.4466417369
 17488.540616689272 12806.470357752403 -999765.0450301182
 15234.09294351427 10760.125379701307 -999826.05592873076
 13683.717492009295 9215.1543712436869 -999863.9091423956
 12716.140791110993 8070.4704351351393 -999886.57720280276
 12202.969279373714 7234.8128346453341 -999899.36744855181
 12029.287389709323 6639.8862421032336 -999905.59962207812
 12099.9561496882 6238.8727674535276 -999907.32946996996
 12339.729459566386 6000.6684477024482 -999905.85709607974
 12689.805135489863 5903.7020405547446 -999902.05277709069
 13101.605256716137 5931.8216513001325 -999896.57536746981
 13531.040378241734 6073.4159064566084 -999890.00623344036
 13935.217789985672 6322.2013317727042 -999882.91288303677
 14270.889659121576 6677.8000548689461 -999875.86664283695
 14492.727275970423 7145.5765143966937 -999869.44227353076
 14549.751185254443 7736.7235387656974 -999864.2147058429
 14379.85070192642 8470.405532408482 -999860.72636338044
 13904.735780503541 9378.6680694900133 -999859.33956137893
 13028.227488078037 10511.9071403372 -999859.87273057003
 11638.280636777328 11941.885987280521 -999860.96122555283
 9616.2147470117798 13757.605113935322 -999859.11843392649
 6860.7476900005895 16042.02516928039 -999847.78019936732
 3330.6782868481382 18815.650870391277 -999817.42226492194
 -863.29035742098358 21921.848476809693 -999759.31467984756
 -5239.3850753297793 24809.371757461526 -999678.47026783193
 -8618.4970165459999 26295.721971943385 -999617.0549341134
 0 0 0
 0 0 0
 -0 0 0
 0 -0 0
 -0 0 -0
 34584.131561447663 22273.328067352624 -999153.56012023729
 30540.816273400378 20979.563642109813 -999313.32246235013
 25760.559593772057 18204.576586205712 -999502.36966239009
 21490.699878613912 15240.384580775237 -999652.88000213238
 18087.803945432435 12641.618060925552 -999756.48076980899
 15550.456151375245 10551.881275902988 -999823.40496460837
 13768.372429079216 8949.3214978005744 -999865.1616920071
 12609.252528304454 7756.2473067861256 -999890.41768505482
 11945.620332686534 6887.2931749561412 -999904.92915456207
 11664.067221995765 6269.2693752107434 -999912.31905469694
 11668.791495293766 5846.7411788207901 -999914.82383382414
 11881.418692953788 5580.5010833359629 -999913.84123708447
 12238.79071634307 5443.5837151655423 -999910.28567473858
 12689.587516071282 5417.176806893337 -999904.80975146592
 13190.28762272478 5487.7115759129338 -999897.94545948005
 13701.522564341907 5645.5924373004791 -999890.19175379991
 14185.489940137817 5885.0526710323638 -999882.06206042983
 14604.182178953739 6204.3942829088728 -999874.10375230061
 14917.605424038609 6606.3511764069444 -999866.9017286984
 15081.263286014328 7098.9382937604905 -999861.07063571573
 15042.806333229781 7697.4175417334045 -999857.22167757968
 14738.576076028161 8427.523278493496 -999855.86522590416
 14090.921827193888 9329.0351969011135 -999857.19731587416
 13006.673024494612 10458.025872422622 -999860.71837615746
 11377.708209367433 11884.955502327884 -999864.63863295538
 9085.4751223581607 13683.480298784496 -999865.09915523801
 6012.71961275788 15902.861537606086 -999855.46265336475
 2078.409645940048 18510.096180692799 -999826.51322753238
 -2657.2500301189275 21269.82060345108 -999770.24048216932
 -7722.2650987337447 23512.553412847476 -999693.71632203076
 -11772.653294806421 23950.018636094141 -999643.83719489351
 0 0 0
 -0 -0 -0
 0 -0 -0
 0 0 -0
 33115.073369757796 19443.08348050114 -999262.40718866524
 28220.020939221893 17506.253757859853 -999448.42863329162
 23193.168702790568 14969.345002194792 -999618.92520886636
 19164.856307520091 12564.830939189273 -999737.38216902816
 16178.442896991586 10545.232853901354 -999813.51063560147
 14071.997143306733 8951.0658658473949 -999860.91898636788
 12669.12653768153 7741.1560251539331 -999889.77779361571
 11817.693173711112 6849.754697256687 -999906.7071425413
 11392.935912808067 6211.3513681851018 -999915.8065184626
 11293.650676990783 5770.6382147368604 -999919.57336026826
 11438.062561698425 5485.0391728088343 -999919.53929809143
 11760.073865767359 5323.5280591057126 -999916.67688446702
 12205.814283017216 5264.0374775282908 -999911.65010070929
 12730.391395182849 5290.7956272965175 -999904.96779271751
 13294.876846251784 5392.309679422011 -999897.07932664955
 13863.753932325424 5560.2555635600411 -999888.43371896842
 14402.982241334616 5789.1199628767536 -999879.51283772767
 14878.501074569709 6076.3157735867835 -999870.8459558133
 15254.779658079011 6422.6434510959989 -999863.01129138866
 15493.01284234698 6833.2086069381548 -999856.62662863883
 15548.804208656577 7318.9849635650526 -999852.32266909501
 15369.409475054828 7898.997971513817 -999850.68239384331
 14890.650946753327 8602.6605027441401 -999852.12043914595
 14033.388851789519 9471.3284275894457 -999856.66869564424
 12699.434469431984 10557.527915000446 -999863.62218478601
 10767.043681787554 11919.367223815403 -999870.99140606064
 8087.7807348618526 13606.326959249487 -999874.71998719044
 4494.3108504846441 15629.059932682299 -999867.75808383781
 -145.94537334512688 17897.573893135534 -999839.81494471803
 -5702.5525381810603 20101.217971347596 -999781.68713505543
 -10857.788121907255 21544.715930183847 -999708.92446380982
 -0 0 -0
 -0 -0 -0
 0 0 -0
 37069.946488881222 17892.762593759726 -999152.4749076463
 32088.635935210554 16788.527248093807 -999344.0172416392
 26108.607111527777 14613.148963946787 -999552.29803750303
 21090.900248483846 12449.17303387744 -999700.05102404661
 17367.777085492242 10576.540037782819 -999793.22718246991
 14748.019275955628 9058.1251799169841 -999850.21192959754
 12985.663093372057 7878.9951077050355 -999884.64034113369
 11875.138070522687 6994.0274204235675 -999905.02782826754
 11258.621898369765 6350.8356516365984 -999916.45166957588
 11016.387240404099 5900.6659775565413 -999921.90762738616
 11056.566497451246 5602.8237990924008 -999923.17740052601
 11307.363755121687 5425.5636195778634 -999921.35029927199
 11711.452835577289 5345.1296126859152 -999917.13229742367
 12221.84541217588 5344.0564280868903 -999911.02981996059
 12798.718968867701 5409.4323921166433 -999903.46075706277
 13406.913124082354 5531.5339770928504 -999894.82287505793
 14013.997411829949 5702.9925725614021 -999885.53532504826
 14588.818240438546 5918.4711002590784 -999876.06136069843
 15100.362391843617 6174.746761792615 -999866.91692347894
 15516.664210118297 6471.1411130584665 -999858.66874498082
 15803.488866985543 6810.3126437423298 -999851.92372737173
 15922.556725607512 7199.4484148344427 -999847.30840755964
 15829.136355462264 7651.7897940546382 -999845.43233201187
 15468.750759748249 8188.2316772930908 -999846.82357445743
 14772.58810424104 8838.4998238221506 -999851.81480135676
 13651.030930961155 9641.1281609696453 -999860.33924859005
 11984.823464101437 10641.093732692914 -999871.55731659173
 9614.5966132290196 11883.433261840368 -999883.16494772339
 6334.8511200079574 13400.027177227481 -999890.14843278506
 1917.4114185395788 15184.338272184861 -999882.87284295855
 -3742.853286475528 17140.410827674728 -999846.08683833678
 -10057.710199691273 18921.066920288064 -999770.39148603368
 -14843.795650317854 19304.143419369859 -999703.46192135185
 -0 -0 0
 0 0 -0
 35775.166514002958 15519.374961187183 -999239.35393963999
 30142.920950782758 14183.966518290168 -999444.95566807617
 24153.458408295013 12314.926042648069 -999632.40896015521
 19416.305308747771 10592.882031981821 -999755.36904705537
 16020.913086896779 9175.2572294915481 -999829.55797407543
 13710.238222906588 8061.3239895717061 -999873.51421237586
 12215.954345502914 7214.0951253638505 -999899.35858112783
 11326.424526205188 6589.6976895379912 -999914.14030996291
 10885.649741544556 6146.3098673948243 -999921.85969940585
 10779.577725839963 5847.5969198153416 -999924.80032966286
 10923.474304974821 5663.8177303480179 -999924.29657340841
 11252.633002980769 5571.6329950106019 -999921.16447061417
 11715.927688846356 5553.1971996302073 -999915.94598708733
 12271.361984324034 5594.9626720075557 -999909.05089800479
 12882.940814092048 5686.5196776187613 -999900.84174878907
 13518.450866713956 5819.6762695899242 -999891.6855611318
 14147.885371739087 5987.8806229906068 -999881.9843487296
 14742.338031563026 6185.9930285019154 -999872.190312149
 15273.163367659901 6410.3767722855746 -999862.80936455575
 15711.189233569979 6659.2739658298142 -999854.39570125181
 16025.723919167702 6933.4571826819629 -999847.54005016317
 16183.108139430029 7237.1431636459974 -999842.85303730436
 16144.505014567507 7579.1126582154557 -999840.94335506624
 15862.543994737878 7973.8970180726064 -999842.38591107959
 15276.248311157973 8442.7995645541396 -999847.66608371341
 14303.532528293008 9014.4287483224016 -999857.06430046959
 12830.599773647138 9724.3247055137199 -999870.39821092307
 10698.654433840256 10613.07588437801 -999886.44425933587
 7692.8551767208291 11721.555041257638 -999901.70773263753
 3554.0990906494189 13078.41078733924 -999908.15755794849
 -1916.0216539816026 14658.936424624035 -999890.7162504911
 -8452.3924503177186 16238.74087494995 -999832.41613615525
 -14174.408502238033 17109.943914611464 -999753.13751088106
 0 0 0
 -0 -0 0
 34245.661091233946 13661.361020789604 -999320.06980320578
 28397.823760605774 12193.668284655439 -999522.32494298264
 22583.455134231019 10611.562587295453 -999688.64267513633
 18149.412885272777 9274.9569702889548 -999792.26541573112
 15046.114737983651 8227.5168628498704 -999852.95038698718
 12985.371502903981 7434.0298081454675 -999888.05139762687
 11696.431052418982 6848.843868154896 -999908.13919994957
 10971.368830600293 6431.1619928573273 -999919.13134083222
 10659.395724126034 6147.0849496078554 -999924.29244889296
 10652.092656848356 5969.1641830996414 -999925.44822150876
 10870.286423570842 5875.5928512503851 -999923.6542265194
 11254.371468775795 5849.3153261808793 -999919.55908115802
 11757.611995249321 5877.084858869187 -999913.60548485932
 12341.591249102134 5948.5394222801697 -999906.14559776639
 12973.144777523336 6055.3843448668749 -999897.50966537429
 13622.303217775341 6190.7682610609018 -999888.04735499294
 14260.945149505082 6348.8977317372683 -999878.15104693372
 14861.918904759519 6524.906856975228 -999868.26580153848
 15398.435277300869 6714.9670749487577 -999858.88874790387
 15843.500946913482 6916.6214415191725 -999850.56074674474
 16169.159846504979 7129.3235375917293 -999843.85331698379
 16345.251600131563 7355.1611518210866 -999839.35427375475
 16337.355686281178 7599.724562648219 -999837.6543198158
 16103.462780861097 7873.0570832369967 -999839.33382250462
 15588.789344066934 8190.60855821928 -999844.93976727815
 14717.994344635912 8574.1212904597505 -999854.92201947363
 13384.154085674298 9052.4114650540741 -999869.45061146771
 11434.733291871811 9661.979420430207 -999887.94023541606
 8658.3569343418421 10446.861362939433 -999907.94373425236
 4787.6440573070404 11454.480506224398 -999922.9337007493
 -430.62966079980515 12714.632545348599 -999919.07306408137
 -6922.2127558745769 14164.105917342464 -999875.72281465284
 -13058.085285703228 15433.539222665755 -999795.62525334838
 -0 0 -0
 39824.808492146476 13749.097479919805 -999112.07927191607
 34031.096982981275 12443.760078225851 -999343.30301115767
 27168.925617307734 10744.622347246137 -999573.11016824376
 21430.335576970378 9374.2878385433814 -999726.3942922476
 17242.797132329306 8351.9862163543748 -999816.44829103269
 14375.494515873697 7604.979322483031 -999867.74597790104
 12509.063422775764 7068.0924891133645 -999896.77737297001
 11373.895992245856 6691.6007419225161 -999912.92469367955
 10768.432348344595 6438.6030739790449 -999921.28952993825
 10547.967545273381 6281.5336578242413 -999924.63851810805
 10609.249590919093 6199.5081508000849 -999924.50211093714
 10877.492015933571 6176.5269366137427 -999921.76228065195
 11296.822635879835 6200.2164149538467 -999916.96611005708
 11823.631038584237 6260.8723384056811 -999910.49760797375
 12422.064094793563 6350.6891448610304 -999902.67579950509
 13061.026785377237 6463.1537961403192 -999893.81297331734
 13712.244415425906 6592.6101291930881 -999884.24922326684
 14349.053801721488 6734.0131429285093 -999874.3709696664
 14945.688408921254 6882.8742648711614 -999864.61705564812
 15476.827838841084 7035.3946607083126 -999855.47506727919
 15917.200387725597 7188.7692542170535 -999847.47053159389
 16240.980531146726 7341.6462699872964 -999841.15277449624
 16420.702932961845 7494.7190277617728 -999837.08157973515
 16425.324981923932 7651.4274532612462 -999835.81870083336
 16216.994078615533 7818.7466200829886 -999837.92501802254
 15745.928308702483 8008.0606138382955 -999843.95617861382
 14942.738509635947 8236.1683698236793 -999854.42945281626
 13707.577528197602 8526.5497721343982 -999869.69164351199
 11896.260761987196 8911.0970388010446 -999889.52956286527
 9306.1584566579004 9432.4105760457078 -999912.20866909332
 5672.8836312026879 10145.962428419005 -999932.43663645
 713.40172391233239 11118.357844708282 -999937.93466235581
 -5671.854255482629 12403.201738362637 -999906.9910026344
 -12726.525431955157 13873.559680976336 -999822.76423984685
 -18004.21102000097 14496.243448687192 -999732.81796259119
 39170.724614739971 11362.644455239843 -999167.92614862276
 32906.482571182925 10506.771580911318 -999403.20749722375
 26065.086990193166 9335.7961535941904 -999616.65359795408
 20574.282702800505 8370.5392828459244 -999753.28604780289
 16626.040836069762 7673.9503347360769 -999832.32856933412
 13950.908682874538 7192.8925988204892 -999876.80963355885
 12231.767860678185 6870.8486504086422 -999901.58280394052
 11207.859850946596 6665.1675367592006 -999914.97609510215
 10685.637265885363 6545.5728877447709 -999921.48323345522
 10526.454602053176 6490.5758549825405 -999923.53016547288
 10631.55020774424 6484.6378140188099 -999922.4567998267
 10929.583282286452 6516.2460724536686 -999919.03809578449
 11367.423810853963 6576.6311368383213 -999913.76108082174
 11903.695597188012 6658.8727145182838 -999906.97639595508
 12504.374454906589 6757.2536201785897 -999898.9849694838
 13139.877015343269 6866.7915311270062 -999890.08936287067
 13783.202596010984 6982.9330500591996 -999880.62386077631
 14408.826673037953 7101.4020880503604 -999870.96957672003
 14992.086945929526 7218.2048566019203 -999861.55784071132
 15508.851063889022 7329.779961053121 -999852.86410771497
 15935.228203663113 7433.2834919434599 -999845.39544802892
 16247.085320313667 7526.9878167798806 -999839.67548452527
 16419.062643142541 7610.7763757298862 -999836.23182243167
 16422.742531481705 7686.7150989332431 -999835.59045411693
 16223.514314120495 7759.6961388256768 -999838.27927276946
 15775.596388810793 7838.1747872463702 -999844.83474916336
 15014.572139040642 7935.0687534742392 -999855.78825516591
 13846.899621932516 8068.9475505278715 -999871.56948094419
 12136.459234436987 8265.6568944953815 -999892.1868248363
 9690.4559499316456 8560.3167588729357 -999916.40452613367
 6253.6942183496312 8998.564845683215 -999939.95676707593
 1539.5741369888776 9631.558839501844 -999952.43026145885
 -4620.9247468999292 10481.782610952114 -999934.38749138929
 -11809.963524731629 11404.041145418933 -999865.22722169815
 -17868.936588940851 11843.175752798801 -999770.19374117604
 38609.069051006889 8963.2614406602715 -999214.19111788098
 32121.883168771237 8604.5669667318271 -999446.92007580225
 25344.742776581581 8026.3363679366221 -999646.54850506934
 20042.885442272196 7509.5134675996542 -999770.91873620113
 16272.903643924679 7138.1107291381977 -999842.10752609046
 13736.434648914741 6900.9098289127169 -999881.83692207816
 12119.478890322025 6766.0588709829735 -999903.66469914571
 11169.375933680376 6704.9034109874456 -999915.14105523052
 10699.481785019658 6696.062540145248 -999920.33874503733
 10576.140001717531 6724.3613538565623 -999921.46102933842
 10704.110098841806 6779.0580978449952 -999919.72997751064
 11014.61030616208 6852.3930368424908 -999915.85799479741
 11456.468929749348 6938.5429586639184 -999910.29894749669
 11989.872107329453 7032.8870378095844 -999903.38606625563
 12582.087534628838 7131.4866764294247 -999895.41101609962
 13204.624782751895 7230.731967232623 -999886.67077802599
 13831.447131128716 7327.1268297270535 -999877.49463755812
 14437.924336682814 7417.2094360784786 -999868.25699440518
 15000.294893874672 7497.597438780469 -999859.37870569725
 15495.402563247599 7565.153028354036 -999851.3194265737
 15900.4899376788 7617.2489057557132 -999844.56388923258
 16192.782900510321 7652.1187291561091 -999839.60656741925
 16348.582526144204 7669.2676708348372 -999836.93979707465
 16341.497478004556 7669.9274808362152 -999837.0505600475
 16139.395453681829 7657.5485661418588 -999840.4282005938
 15699.534248635884 7638.3462225708217 -999847.57852952753
 14961.282011139741 7621.9439246117154 -999859.02306844899
 13835.862124276176 7622.1655074817872 -999875.22797209793
 12193.069545652263 7657.9370929482075 -999896.33715427504
 9846.6460486873384 7753.8355874494309 -999921.45771319198
 6545.3254435633207 7938.4384510869832 -999947.0685540291
 1991.5540667291175 8234.7695471824445 -999964.1104974238
 -4047.1826746756165 8629.0212225880823 -999954.57912104076
 -11333.245571925583 9003.5358090998143 -999895.24145669432
 -17790.534407539602 9120.6025168829929 -999800.13577475748
 38402.847435759824 7066.6964156324357 -999237.35073834925
 31819.773182160436 7026.7698168344186 -999468.9222484997
 25056.540207177972 6886.2993340621515 -999662.31732236838
 19842.432792998596 6752.367206707584 -999780.31756879529
 16168.364140200914 6675.4332438137189 -999846.99959145591
 13710.087348678735 6659.4687736208552 -999883.83574320527
 12150.096477274121 6691.4555673388968 -999903.79516130628
 11238.859700904253 6756.455599176571 -999914.0154735106
 10793.572059914233 6842.3071056120116 -999918.33748344646
 10683.660517623433 6940.1500328045513 -999918.84356454981
 10816.131819113538 7043.7673624850349 -999916.69484703289
 11123.848921588618 7148.7766083450078 -999912.57366740494
 11556.894686684547 7251.9509847887202 -999906.91936405515
 12076.473037855776 7350.6999187978799 -999900.05801063415
 12650.716702767511 7442.695584185748 -999892.27702255372
 13251.909934017591 7525.6212276478191 -999883.86921093939
 13854.736888800193 7597.0369636917903 -999875.1578547766
 14435.280424089879 7654.3526922315505 -999866.50787189649
 14970.520352422011 7694.9074146211087 -999858.3259243574
 15438.120166600705 7716.1396665753064 -999851.05172438943
 15816.258094982844 7715.8364533025842 -999845.14393364894
 16083.257647991664 7692.4346316357351 -999841.06500626705
 16216.707905402347 7645.3530257361808 -999839.27056393551
 16191.733648174883 7575.3303447552144 -999840.20829912333
 15977.976957752478 7484.7574128520846 -999844.32921270712
 15534.788122903301 7378.0035212325556 -999852.10677480558
 14804.014168061078 7261.7515441172864 -999864.04482260637
 13699.799949089129 7145.3401091865562 -999880.62267256633
 12095.119629816863 7040.9989811656887 -999902.06141126016
 9806.1235429285189 6963.4934171430086 -999927.67223459249
 6579.7055146547555 6927.7610721941955 -999954.3557592351
 2103.2573393998118 6941.4187264585153 -999973.69616136828
 -3899.7900498148083 6988.1935484925725 -999967.97788154008
 -11262.937103285225 7008.4675832745897 -999912.0099438458
 -17890.316329151476 6929.134714618669 -999815.94489873445
 38572.771173824964 5493.7508152406381 -999240.69173845765
 31941.017085281612 5671.2169645631966 -999473.66584903013
 25153.798038332185 5857.690557847428 -999666.43131875491
 19947.937618943241 6040.916233198679 -999782.76996346284
 16294.85827389631 6224.7716936866982 -999847.85333129298
 13856.328646932503 6410.2086958490672 -999883.44889837236
 12309.469595860195 6594.422993204812 -999902.49051777797