# OOMMF OVF 2.0
#
# Segment count: 1
#
# Begin: Segment
# Begin: Header
#
# Title: Oxs_TimeDriver::Magnetization
# Desc: Oxs vector field output
# Desc:  MIF source file: /mnt/gpfs/work/plgrid/groups/plggspinsym/MF/switching-obrazki/p-ap/Anisotropy.mif
# Desc:  Iteration: 4000, State id: 28073
# Desc:  Stage: 0, Stage iteration: 4000
# Desc:  Stage simulation time: 5.88567e-10 s
# Desc:  Total simulation time: 5.88567e-10 s
# meshunit: m
# meshtype: rectangular
# xbase: 1.0000000000000001e-09
# ybase: 1.0000000000000001e-09
# zbase: 3.4999999999999998e-10
# xnodes: 35
# ynodes: 35
# znodes: 5
# xstepsize: 2.0000000000000001e-09
# ystepsize: 2.0000000000000001e-09
# zstepsize: 6.9999999999999996e-10
# xmin: 0
# ymin: 0
# zmin: 0
# xmax: 7.0000000000000005e-08
# ymax: 7.0000000000000005e-08
# zmax: 3.4999999999999999e-09
# valuedim: 3
# valuelabels: Magnetization_x Magnetization_y Magnetization_z
# valueunits: A/m A/m A/m
#
# End: Header
#
# Begin: Data Text
 -0 0 -0
 0 0 -0
 -0 -0 0
 -0 0 0
 0 0 0
 -0 0 -0
 0 0 0
 0 -0 0
 -0 0 0
 0 0 0
 0 0 0
 -0 -0 0
 0 0 0
 1272.3147717865836 -35095.183302781239 -999383.16441896593
 4090.5780740992755 -34820.814330664551 -999385.20004068955
 6801.5782808754047 -34582.150216046604 -999378.71371133544
 8885.236989495852 -34514.940526159859 -999364.68390879023
 10562.643010232132 -34620.28047854521 -999344.71867930796
 12158.273114592675 -34873.735847082375 -999317.76675036608
 14005.191722461928 -35253.454742381648 -999280.26525772223
 16382.941251262744 -35719.323652456384 -999227.56624993542
 18972.984245427357 -36119.392374380004 -999167.3610378434
 0 0 0
 -0 0 -0
 -0 0 -0
 -0 0 0
 0 -0 0
 -0 0 0
 -0 -0 0
 0 0 0
 0 -0 0
 0 -0 -0
 0 -0 0
 -0 -0 0
 0 0 -0
 -0 -0 -0
 -0 -0 -0
 -0 -0 -0
 -0 0 -0
 0 0 -0
 0 0 -0
 -0 -0 0
 0 0 0
 0 0 -0
 0 0 0
 -3581.9447276456563 -32661.393642455307 -999460.05574875302
 -1068.4361057484678 -31886.664781370637 -999490.91994545318
 801.08824461857341 -30649.561357357939 -999529.87081238662
 2371.6647516659168 -30166.692889384813 -999542.06807238632
 4870.6388195572945 -29092.798430130861 -999564.84829999553
 7215.6612790483332 -28450.269483029326 -999569.16539009416
 9084.717616099515 -28204.806270875295 -999560.88199221669
 10633.43912749049 -28235.449235533146 -999544.74105904298
 12122.936201967417 -28479.308665646156 -999520.86691362783
 13832.523094246259 -28936.69228787559 -999485.53223360062
 16005.39311471998 -29673.82119928216 -999431.48425826384
 18563.123377656932 -30747.929271631139 -999354.77949323517
 20639.457384919657 -31422.890087038795 -999293.05750487105
 22412.40159131735 -33258.764922728478 -999195.44575159275
 24589.415776550624 -34474.470028359181 -999103.03349956428
 -0 0 -0
 0 -0 0
 -0 0 -0
 0 -0 -0
 -0 0 0
 -0 0 0
 -0 0 -0
 -0 0 0
 -0 0 -0
 -0 0 0
 0 -0 -0
 -0 0 -0
 -0 0 0
 -0 0 0
 -0 -0 0
 0 0 -0
 0 -0 -0
 -0 -0 0
 -8621.913156673374 -29968.729625016746 -999513.65066125093
 -5723.3470010498404 -29003.789502391253 -999562.91622569051
 -2798.0254509221045 -28154.074167973864 -999599.67945238971
 130.75067960202921 -26458.253513792697 -999649.91058132926
 2355.3792281299488 -24809.886965867598 -999689.41261645476
 4171.5235065606093 -23415.429211334289 -999717.11802213476
 6092.5688150036549 -22203.289637280486 -999734.9121314697
 7876.0316413204364 -21453.385424349763 -999738.82608380262
 9384.773178970454 -21120.262393341989 -999732.89460176101
 10697.06860518326 -21095.463197978679 -999720.23794445547
 11980.261322612037 -21319.626546880823 -999700.92870945332
 13420.342349429346 -21803.046708406866 -999672.20705862157
 15161.026049593667 -22628.566183281891 -999628.97681170329
 17168.467661494731 -23897.853329756021 -999566.97440661036
 19168.696941585058 -25496.243066228286 -999491.12184504652
 21334.082838368584 -27491.42862135528 -999394.3557284096
 24133.884103463228 -29437.582911634006 -999275.22952908278
 27154.895884613896 -30577.001078777957 -999163.47943393339
 29842.130860062556 -32093.55457950279 -999039.26398324477
 -0 0 -0
 -0 -0 -0
 0 0 -0
 -0 0 0
 -0 0 -0
 0 0 -0
 0 -0 -0
 -0 -0 -0
 -0 -0 0
 0 0 0
 0 0 0
 0 0 -0
 -0 0 0
 0 0 0
 -0 -0 -0
 -11152.881110225962 -26983.423729315542 -999573.66316184285
 -7848.6271878819016 -26113.909609077105 -999628.16225644352
 -4003.6718151549844 -24075.426958238131 -999702.12785047886
 -735.98938468825997 -22075.281443872871 -999756.04037625052
 1968.35178578247 -20168.792486974675 -999794.65161645319
 4054.881527550961 -18562.189014271346 -999819.48524460965
 5717.1466877669272 -17262.552653998715 -999834.64558376779
 7203.1697651987379 -16257.537006874489 -999841.89091866114
 8531.7166503873104 -15612.026964656407 -999841.72468698886
 9693.8324807178979 -15300.373940789914 -999835.95062845561
 10746.30754212908 -15262.287058040638 -999825.77455673146
 11792.257365604893 -15461.363950892041 -999810.92657111993
 12945.899908355888 -15906.813233149605 -999789.66636404523
 14294.152144438756 -16652.057028378338 -999759.16410463327
 15852.488931066084 -17757.554839546166 -999716.64377503039
 17594.93919435385 -19214.438448407342 -999660.55412317801
 19663.462370661342 -21013.315050276848 -999585.80864185723
 22295.795674781712 -23079.070783123141 -999484.99437811272
 25490.682364695895 -25268.575237566427 -999355.65451847296
 29208.999395681531 -27526.418829656901 -999194.24068632291
 32633.18549990276 -28510.679735783604 -999060.66699932318
 -0 -0 -0
 0 -0 0
 -0 0 -0
 -0 -0 -0
 0 -0 -0
 0 -0 -0
 0 0 -0
 0 -0 -0
 -0 0 -0
 0 0 -0
 -0 0 0
 -0 0 0
 -0 0 -0
 -12372.627877165765 -25186.120614670803 -999606.2111690765
 -9422.1122124681824 -23698.192793515285 -999674.75683833135
 -5370.9159025765475 -21174.777846568479 -999761.36254884128
 -1606.0901102289608 -18678.916516758443 -999824.24383104325
 1408.3752633292765 -16581.328486612827 -999861.52842517989
 3742.0959422281535 -14859.607459821937 -999882.58749920188
 5521.2330748649683 -13495.136450843329 -999893.69298816263
 6911.722745135984 -12442.225487597398 -999898.70442640863
 8069.4012653567161 -11668.403318976771 -999899.36149954854
 9069.0933283536615 -11169.106004793577 -999896.49595208373
 9952.9713637267014 -10922.023992994551 -999890.81791610096
 10774.07724739008 -10895.087495354348 -999882.60127273737
 11601.623144866699 -11069.160959221632 -999871.42974287609
 12509.064706425572 -11450.464360345686 -999856.19474307541
 13557.969953591273 -12068.884374677591 -999835.24816876114
 14788.886633140426 -12959.849328119035 -999806.6468760568
 16247.290264754536 -14140.993941393168 -999768.00201316806
 18047.089773176591 -15629.250398197 -999714.9739214218
 20350.976089941141 -17443.240483179467 -999640.72102612595
 23293.648195084312 -19603.280883612504 -999536.45122744876
 26980.765813541344 -22127.368702865213 -999391.02348900575
 31124.777489027325 -24685.162047364232 -999210.63395109726
 34395.394415361101 -26351.030848612489 -999060.84900581872
 0 -0 -0
 -0 0 -0
 0 0 0
 0 0 -0
 0 -0 0
 -0 0 0
 -0 0 0
 0 -0 0
 -0 -0 -0
 -0 -0 -0
 0 0 0
 -13134.834930687523 -24013.357606421683 -999625.34720154514
 -10328.021721870718 -22251.109781447332 -999699.06475939357
 -6370.5462789604962 -19356.56222988803 -999792.34825975134
 -2487.7866468798347 -16502.465453102835 -999860.73007772875
 776.52412311728835 -14113.897122194068 -999900.09246839769
 3319.5110374443325 -12239.067717880967 -999919.58980103466
 5246.1227084250177 -10791.455998170015 -999928.00874561374
 6698.9080096162279 -9689.7992798535724 -999930.6138034754
 7817.0707571610928 -8869.1160723858575 -999930.11365038517
 8716.7610783340733 -8285.794088427534 -999927.67923116672
 9475.4077762090074 -7914.8537642344581 -999923.78296416416
 10146.818413888346 -7734.6135534070318 -999918.60560210329
 10780.060796668005 -7725.5432345140744 -999912.0492678103
 11426.600422530335 -7877.3134891327118 -999903.68572926952
 12138.532132536744 -8193.9339527590473 -999892.75199095486
 12964.455137520159 -8692.7822848990891 -999878.17179851187
 13950.573003239615 -9397.5539774069257 -999858.52373829496
 15155.452817524338 -10332.136942153245 -999831.76544661995
 16672.48282872553 -11527.691602816338 -999794.54921630584
 18628.804176245449 -13031.060112023222 -999741.54616446758
 21166.857281711407 -14911.557183574385 -999664.74861084134
 24419.876195996319 -17255.259631667974 -999552.86286499922
 28370.357935871933 -20063.385178455479 -999396.10934092174
 32566.85485661554 -23039.922842914617 -999203.96412351215
 35768.436496999508 -25103.441776564432 -999044.76184079505
 0 -0 0
 0 0 0
 0 -0 -0
 0 -0 0
 0 -0 -0
 -0 -0 0
 0 -0 -0
 0 -0 0
 0 0 -0
 -14065.988593243408 -22871.230328574962 -999639.46240039542
 -11143.492934276475 -21141.361421930462 -999714.39191523648
 -7136.6114021140947 -18166.890087239433 -999809.49829567713
 -3206.9656769111671 -15142.756767557239 -999880.19896816928
 163.9565288748482 -12556.949646679783 -999921.14495785488
 2856.3322517658462 -10510.917657844899 -999940.6792285518
 4917.3730537904485 -8950.4964720174612 -999947.85266790492
 6463.5516150029489 -7778.524153815546 -999948.85722346255
 7620.4803343074927 -6909.1940834224097 -999947.09425878711
 8500.6796623368973 -6278.091569930737 -999944.16044673114
 9195.3834518614221 -5841.2248178681211 -999940.66074732679
 9772.2392506946871 -5570.1668233500232 -999936.73628964508
 10282.174196842478 -5444.9973999384474 -999932.31215772813
 10768.407945116889 -5451.8706731089387 -999927.15659516479
 11271.824670762791 -5584.398002172662 -999920.87710355606
 11832.596998671574 -5845.2078843186628 -999912.90780400264
 12490.82486147622 -6245.5060933265531 -999902.48171905172
 13289.795935959883 -6802.9248677294236 -999888.5445574543
 14284.301382193706 -7540.8515844621506 -999869.53863561805
 15550.714764726334 -8492.9475914163831 -999843.0102328643
 17190.113144596267 -9710.1723729092264 -999805.08728579921
 19324.063230077689 -11267.524242315441 -999749.78043394873
 22080.203215804897 -13262.987850405098 -999668.22385190811
 25540.321277766529 -15783.191183460211 -999549.18981763709
 29636.550782135713 -18809.794771507564 -999383.74335306848
 33944.02262778474 -21970.961922737257 -999182.20568624721
 37272.060886561725 -24127.326618510451 -999013.84654443688
 0 -0 0
 0 -0 0
 0 0 -0
 0 0 -0
 0 0 -0
 0 -0 0
 -0 0 -0
 -15831.506558163386 -21189.454283991377 -999650.12400701747
 -12459.815682764049 -19847.888931397581 -999725.36943808664
 -8125.9803927485 -17095.844699676818 -999820.83421814209
 -3977.8744954822337 -14142.076953579221 -999892.08326395752
 -452.00721045583208 -11523.105391690437 -999933.50465499156
 2373.6980907551388 -9394.0000658728732 -999953.05805829528
 4556.7921286643796 -7743.1070317152971 -999959.63915499696
 6202.1195151180073 -6497.4481378511919 -999959.65762685449
 7425.209785574134 -5572.8139658309192 -999956.90407344175
 8333.0568429342475 -4896.917088303866 -999953.28909238696
 9016.5386992727617 -4415.0579401256937 -999949.60337672499
 9548.6354457511643 -4088.823487680253 -999946.0510865628
 9985.7652811877706 -3892.4293977269363 -999942.56509318214
 10372.078713098241 -3808.7331210415932 -999938.95490433916
 10744.534216975051 -3827.0755552803389 -999934.95212296396
 11136.730187796942 -3942.9212287239429 -999930.21087119298
 11581.265588904185 -4158.0441978268418 -999924.28961187275
 12111.757003856197 -4480.3631202737997 -999916.6123675463
 12766.039507345817 -4923.6308597372008 -999906.3886656859
 13591.292738441143 -5508.2936065133208 -999892.46194940491
 14649.750626531295 -6264.7529220141723 -999873.06078192068
 16022.294582745035 -7238.2995182282884 -999845.43460296339
 17808.949553298593 -8493.9764822415636 -999805.32789104874
 20124.243976246758 -10117.228441970425 -999746.29606367508
 23080.626008734976 -12200.969503776318 -999659.15243457491
 26753.449304772279 -14806.091466770789 -999532.40698127181
 31099.286373783398 -17861.023252156014 -999356.70220168482
 35732.579314723342 -20932.663699101016 -999142.13521699584
 39481.093405733969 -22843.461240472087 -998959.16810550506
 0 0 0
 0 0 0
 -0 0 0
 0 -0 0
 -0 0 -0
 -18967.461310468803 -18266.864912007451 -999653.21840012225
 -14956.227677553385 -17902.569244582803 -999727.8676060302
 -9910.3765786449676 -15774.246569788142 -999826.46373319451
 -5213.6012766556296 -13154.328294766816 -999899.88599301351
 -1312.985825173884 -10686.530332473892 -999942.03538888996
 1763.7427382827225 -8599.6280153878579 -999961.46706238156
 4122.1754803236881 -6932.8379675650986 -999967.47118445055
 5894.8941375722115 -5647.7092640892961 -999966.6762463511
 7208.0370668415999 -4680.0303359809513 -999963.07007693907
 8172.0717311857834 -3964.3854757222152 -999958.74959491217
 8879.4883186546904 -3445.1645507328931 -999954.64173552266
 9405.3688702852396 -3079.5635999275455 -999951.02646302024
 9809.296610177993 -2836.7202150814974 -999947.86400013627
 10138.050368122225 -2695.4087332820141 -999944.97583941801
 10428.97106918903 -2641.6346137001319 -999942.12748988892
 10713.379424409699 -2667.0259964037455 -999939.05337957654
 11019.4279923676 -2768.1220106306005 -999935.45277045527
 11374.346993484882 -2946.1565550521391 -999930.96981342894
 11806.583595549402 -3207.0196944133427 -999925.15700350353
 12348.486628747774 -3561.5170516436851 -999917.41182673199
 13039.822926485018 -4026.4476171080873 -999906.87103231391
 13931.680586311377 -4626.9154021047998 -999892.2441592908
 15089.935340192193 -5399.5645440351618 -999871.5610287973
 16597.860254028448 -6395.7110997684449 -999841.79044212587
 18557.296082851142 -7682.173455424705 -999798.28514210519
 21086.892192077627 -9335.7198651369472 -999734.05829364411
 24314.69262942858 -11424.726130172105 -999639.0705425567
 28352.276669583352 -13963.565740866199 -999500.45884904533
 33206.177887508573 -16805.810245242352 -999307.21727209818
 38512.001451557917 -19399.208263514691 -999069.81560997211
 42942.287162498542 -20444.877019469528 -998868.34316486004
 0 0 0
 -0 -0 -0
 0 -0 -0
 0 0 -0
 -17936.99519338378 -15754.947663775138 -999714.9822962262
 -12902.729840077491 -14239.553318307906 -999815.3602960743
 -7390.3358636613902 -12067.050621666525 -999899.87960051093
 -2782.5939695114971 -9872.3285796087384 -999947.39576600562
 789.0499390016497 -7931.7120780972464 -999968.23216725455
 3475.9680109967999 -6328.5116204681872 -999973.93345379585
 5465.7711549198148 -5057.6887561694311 -999972.27218064794
 6923.1997280495725 -4078.549890345424 -999967.71684705769
 7981.2108949149488 -3340.3132741642585 -999962.57058946032
 8744.6048923059188 -2794.3647914591097 -999957.86081748945
 9295.4119234087884 -2399.645581770058 -999953.91744732729
 9697.6707599148613 -2124.119708279703 -999950.72043441085
 10001.379142575452 -1944.2001943709961 -999948.09490335581
 10245.861681875371 -1843.3477262176928 -999945.81072553946
 10462.791033069496 -1810.5934195376262 -999943.6242885231
 10678.861608543821 -1839.429783777201 -999941.28748282813
 10918.052273820076 -1927.1769428819575 -999938.53917307185
 11203.571856764001 -2074.7192121976004 -999935.08565198432
 11559.765367168366 -2286.5197663179492 -999930.56941570423
 12014.30521739192 -2570.9811865594388 -999924.52041435672
 12600.846865597507 -2941.3524762269967 -999916.28004742495
 13362.093395205045 -3417.3080454558603 -999904.88370935584
 14353.141298292476 -4027.010746998681 -999888.87908572855
 15645.17177479513 -4809.0691488612192 -999866.04175462353
 17329.68038575547 -5813.2323531620741 -999832.93029752525
 19523.296704953667 -7097.8562305746036 -999784.20737812249
 22372.096459229178 -8720.8942949919146 -999711.67608601763
 26047.95663440922 -10717.641298106591 -999603.23935058201
 30705.726020403381 -13049.711779113939 -999443.27673562441
 36273.670996159984 -15488.69665243784 -999221.85778157949
 41499.252909729839 -17368.170064018519 -998987.56682781701
 -0 0 -0
 -0 -0 -0
 0 0 -0
 -21374.226896481458 -13302.428309907616 -999683.04368216486
 -16920.70951544186 -12929.211058317065 -999773.23683468532
 -10800.919247571574 -11102.760673964953 -999880.02722767903
 -5224.6428279845295 -9118.2640001630061 -999944.77865977352
 -849.83675844853292 -7330.8686355054124 -999972.76770046726
 2405.2250467661902 -5826.4826816845753 -999980.13329867413
 4775.2749146470705 -4609.3444414930291 -999977.97510410671
 6482.1531963725456 -3651.7273247557832 -999972.32290573127
 7702.0204759780045 -2914.6805715112955 -999966.09118397289
 8567.856855293172 -2358.2303392888352 -999960.51450973516
 9178.9425393616566 -1946.3617396679701 -999955.97837596713
 9609.6962232429069 -1649.1248953188663 -999952.46593304444
 9916.4562987362224 -1443.048218368662 -999949.78949260979
 10142.4549736144 -1310.6225585814159 -999947.7050704289
 10321.523995477781 -1239.3932979472168 -999945.96356336365
 10480.972548364947 -1221.0256705931672 -999944.32760566846
 10643.898257056402 -1250.5636602947538 -999942.57011111651
 10831.093175592407 -1325.9602855325397 -999940.46285263542
 11062.711423802106 -1447.8672373011141 -999937.75811118202
 11359.905400082594 -1619.6682792514462 -999934.16244469129
 11746.644211021738 -1847.7944087610363 -999929.29850345047
 12251.881483639454 -2142.3964160598593 -999922.64777717041
 12912.190443830172 -2518.4028505404476 -999913.46274816443
 13775.026812694596 -2996.8468166487996 -999900.62883541943
 14902.950957621351 -3606.1473783785609 -999882.44196697464
 16379.343588148615 -4382.7815362443616 -999856.24383189576
 18316.20363985738 -5370.4641858398472 -999817.82080469618
 20863.877781227948 -6616.453899868784 -999760.43187441712
 24218.662638346665 -8162.4296529971434 -999673.36221496377
 28609.356663287883 -10024.494080006958 -999540.40149948571
 34187.18278726624 -12146.105804175759 -999341.63760290889
 40540.136311458984 -14234.059362216482 -999076.51804149675
 45667.337976690505 -15100.226087971678 -998842.56888371287
 -0 -0 0
 0 0 -0
 -20621.095546526023 -11169.767244096236 -999724.96553710895
 -15180.552783407773 -10181.610472477227 -999832.9288563052
 -8798.2927377642427 -8505.7471596008872 -999925.11835144809
 -3412.4730436534119 -6838.0968970440263 -999970.79730287776
 673.01551323344427 -5409.7600491135072 -999985.14066276501
 3640.9545578067446 -4248.1285550104185 -999984.3483043561
 5755.0853826877365 -3326.884280424701 -999977.90517252055
 7244.9585393809466 -2609.0736967319449 -999970.35121557873
 8286.4408153258901 -2058.4859074109427 -999963.54810282134
 9008.6427196479272 -1642.9487571366469 -999958.07165887265
 9505.4038693273906 -1335.3372398030112 -999953.93102469319
 9845.3061187163039 -1113.7121375985848 -999950.91359161388
 10079.179925405009 -960.99788865570281 -999948.74199385289
 10245.464969475266 -864.40543303759284 -999947.14022832538
 10374.027288141586 -814.76312757225196 -999945.85639367066
 10488.942668543439 -805.88819633292951 -999944.66478196229
 10610.604591445663 -834.0888678811823 -999943.35807882855
 10757.406060105688 -897.83807721498397 -999941.73435337993
 10947.195645822263 -997.62618632219767 -999939.57999945397
 11198.6945129954 -1135.9972232791354 -999936.64736897859
 11533.054788382633 -1317.7897857173937 -999932.62376888609
 11975.734419518598 -1550.6119399978129 -999927.08603563928
 12558.883392782795 -1845.5532814773198 -999919.43094481959
 13324.520136761272 -2218.074865634826 -999908.76449154888
 14328.940125686931 -2688.9381851008598 -999893.71989542514
 15648.995907307835 -3284.9533010832133 -999872.1508317464
 17390.961370246416 -4039.244917624545 -999840.60677845753
 19702.098826850688 -4990.5804743509198 -999793.43937052635
 22781.957117923663 -6180.6820257836371 -999721.35197742644
 26878.72182343416 -7645.6143782471063 -999609.46318745764
 32214.253440615856 -9383.953829538741 -999436.93312073906
 38641.895594968111 -11230.82998868182 -999190.00813788793
 44438.359659359499 -12526.203734785149 -998933.59459514637
 0 0 0
 -0 -0 0
 -19183.102087326464 -9614.9482367133951 -999769.75417578651
 -13369.61438942381 -8137.4944306021462 -999877.50979580998
 -7055.4937690843417 -6508.8343413282155 -999953.92648021132
 -1936.9136186299347 -5098.5312783090594 -999985.12656160945
 1863.577662656244 -3961.3744986383426 -999990.41724927374
 4582.4947925890065 -3067.8927727289074 -999984.79427209857
 6490.7676840503736 -2373.9775811949416 -999976.11679745407
 7813.7341127461295 -1839.6590668564625 -999967.78008780524
 8721.2238603720234 -1432.1859335315053 -999960.94378622086
 9336.5260079490781 -1125.3779290966147 -999955.78042562446
 9748.1952701812043 -898.52329359696591 -999952.0815243423
 10020.115651201742 -735.44863040766529 -999949.5269250588
 10199.041625717191 -623.76703246337036 -999947.79386956303
 10319.971751010304 -554.24083712663617 -999946.59407398
 10409.926469894473 -520.23299912933965 -999945.6799189233
 10490.63369580088 -517.252972516314 -999944.83800558862
 10580.500451798469 -542.61271974955912 -999943.87771595735
 10696.145414872128 -595.20331289712897 -999942.617456762
 10853.703812549065 -675.39653666490153 -999940.86872828018
 11070.085125643283 -785.07700795708297 -999938.41653843992
 11364.354764931333 -927.8166284007965 -999934.99318559759
 11759.421873061543 -1109.2048374518629 -999930.24039771885
 12284.258741429678 -1337.3377494419008 -999923.65134290012
 12976.970340356136 -1623.449112419813 -999914.47766984801
 13889.180224351983 -1982.6497089000597 -999901.57504267746
 15092.367005951697 -2434.7451516772308 -999883.13940890308
 16686.837980304292 -3005.1333656065681 -999856.24897365831
 18813.517595456793 -3725.7962719294092 -999816.06808343809
 21666.254432666141 -4636.1158665714884 -999754.50979154429
 25493.390579019102 -5781.4719893796246 -999658.27242034161
 30545.95581719694 -7199.9239693099053 -999507.43152717478
 36808.638687200881 -8860.4563707274319 -999283.05120766361
 42809.87598441678 -10422.158896839792 -999028.8750191998
 -0 0 -0
 -23120.655254690941 -8399.3203394951452 -999697.3975751003
 -18420.391842074892 -7862.849676320704 -999799.41226195579
 -11771.454627924011 -6310.5433952203966 -999910.80097076646
 -5604.0735272861848 -4869.0538577095595 -999972.44295752048
 -766.16004827945824 -3725.0267358985416 -999992.76856115181
 2778.5742939508937 -2845.203497246036 -999992.09213970904
 5290.7295825721158 -2173.1273513444585 -999983.64271521929
 7036.5959980380976 -1660.4636175044361 -999973.86424712883
 8232.4380392344174 -1270.1356003743792 -999965.30625791545
 9040.1005224403343 -974.41096739553063 -999958.66269851918
 9576.6482113066468 -752.52497476920678 -999953.8596931356
 9925.8149045033351 -588.82502911654501 -999950.56451984984
 10147.67115960597 -471.48344506169911 -999948.39990541397
 10285.900889413588 -391.61687069290218 -999947.02203622775
 10373.010365068081 -342.66292313160915 -999946.14016860293
 10433.987691761482 -319.92101310650304 -999945.51329129608
 10488.882774734764 -320.21085472532269 -999944.93888570985
 10554.674149874107 -341.62888538135394 -999944.23951703147
 10646.696584033421 -383.39502813502708 -999943.24881970149
 10779.840058378935 -445.78765976693302 -999941.79646701354
 10969.696574312453 -530.16913500282317 -999939.69052026107
 11233.822263220463 -639.10834310710527 -999936.6943851416
 11593.299150019802 -776.60887985547231 -999932.49386819394
 12074.829888104641 -948.45040880697559 -999926.6467721496
 12713.688445856422 -1162.6511819535842 -999918.5018631923
 13557.979869880883 -1430.0710781169671 -999907.06372070347
 14674.804007934443 -1765.2101517797287 -999890.76111365703
 16158.962184584583 -2187.3270044391347 -999867.04293205554
 18144.459214591676 -2722.0909694799293 -999831.67024282832
 20817.270341343487 -3403.9935319965384 -999777.50228916912
 24421.826016201565 -4279.3110996712585 -999692.58370288357
 29234.377903156139 -5407.1412309288453 -999557.95928616566
 35411.907663407634 -6843.5222502324696 -999349.36983962147
 42426.071027718994 -8502.6272988057681 -999063.42832983774
 48075.60061965842 -9476.8578471318451 -998798.74138407083
 -23011.802600523813 -5767.4253624790199 -999718.55726787576
 -17390.54003929313 -5331.1624413855625 -999834.5602269232
 -10488.425918088571 -4364.3874308910572 -999935.47044002486
 -4496.1256780147223 -3384.8555741699001 -999984.16367792035
 108.29174811906384 -2577.2766950572582 -999996.67295333243
 3451.3942106556478 -1951.625938997478 -999992.13948620472
 5805.049178786122 -1475.6801257664793 -999982.0617252083
 7429.2348325909734 -1115.1990392325993 -999971.78100229683
 8531.703782222934 -842.54728159561716 -999963.24939702195
 9267.1548174263007 -636.99380739646597 -999956.85610954196
 9747.2734185914669 -483.27346270522082 -999952.37741987663
 10051.826218002767 -370.14357110457354 -999949.41061206674
 10237.917490318714 -289.29238392862919 -999947.54930215096
 10346.959378988315 -234.57962086430294 -999946.44126773661
 10409.677891945827 -201.51625992239357 -999945.7975297377
 10449.636512357296 -186.90424273742295 -999945.38359030557
 10485.716122262209 -188.58516381223285 -999945.00558432669
 10533.898968133124 -205.26982586109071 -999944.49587806
 10608.621015590521 -236.43464270534278 -999943.6990445049
 10723.897858986942 -282.27924920560434 -999942.45751099859
 10894.39632863216 -343.74495109314262 -999940.59521955752
 11136.616258305683 -422.5976196699487 -999937.8966663715
 11470.365237513279 -521.58148991621272 -999934.07716412342
 11920.757703788169 -644.65370524327659 -999928.73743950773
 12521.052840033173 -797.31666495904176 -999921.29066337668
 13316.761923053076 -987.08264772373605 -999910.8407851829
 14371.580700935734 -1224.1384217568429 -999895.97416595358
 15775.748175905879 -1522.3253142594765 -999874.39625941415
 17657.134141035422 -1900.5807703373198 -999842.29426778143
 20193.948035551926 -2384.8709515698324 -999793.23705118231
 23623.191716319674 -3009.9063313371798 -999716.40242471313
 28223.933986761022 -3816.7092348595106 -999594.33885998349
 34207.529743782448 -4828.5701736753435 -999403.08675674291
 41307.884296063232 -5940.8474425298054 -999128.80302123574
 47516.998119711359 -6664.9908635665061 -998848.19306363061
 -22849.031440933923 -3329.3832552377589 -999733.38294234767
 -16798.179655951026 -3112.1008540410648 -999854.05734463094
 -9715.0260430306153 -2630.5270913278246 -999949.3480152908
 -3782.419976071395 -2085.4301845085211 -999990.67209653032
 690.03335745547872 -1601.4241079911601 -999998.47964624024
 3904.0631342591155 -1212.4075792424071 -999991.6441445424
 6151.5271500998515 -912.16818955499912 -999980.66314450081
 7693.0787128786296 -683.98133986324478 -999970.17390992411
 8732.1656866696503 -511.56633197641008 -999961.74305935774
 9418.8569416255614 -381.86981831249949 -999955.56866760575
 9861.0677285915826 -285.08593439681169 -999951.33785062865
 10135.731348210598 -213.99922960248193 -999948.60925667896
 10297.856833924019 -163.32318410047978 -999946.96232858545
 10387.288651995448 -129.19192209508043 -999946.04231623793
 10433.552514553268 -108.80201800564897 -999945.56309033488
 10459.26703464907 -100.16680240637545 -999945.29535355547
 10482.544113647677 -101.94973336807763 -999945.0514279058
 10518.711886189432 -113.35477951139507 -999944.67039479199
 10581.615422730129 -134.06153223084428 -999944.00415350823
 10684.694497308868 -164.19930210287089 -999942.90354104131
 10842.006662387148 -204.35893893914411 -999941.20283592504
 11069.3571078108 -255.64418887389331 -999938.70011079614
 11385.715344179993 -319.76729721200064 -999935.12951339863
 11815.145291556411 -399.19728190404589 -999930.11904996098
 12389.553307018487 -497.37640393999646 -999923.12283773371
 13152.666636572671 -619.03295373357878 -999913.30832155095
 14165.774576541902 -770.63638899692762 -999899.3634112397
 15515.827363407574 -961.0508746742687 -999879.16044012317
 17326.28235692616 -1202.3937394447294 -999849.16571900155
 19769.994593091389 -1510.8305147889794 -999803.41302925372
 23079.640522724741 -1906.0565764011872 -999731.81260859617
 27538.993207466843 -2405.2578879053322 -999617.83626924711
 33398.832885761818 -3000.1515852986017 -999437.60037950042
 40519.072516005021 -3598.9124604430494 -999172.28373866773
 46982.307724451457 -3969.4907471711904 -998887.83449599228
 -22735.592110995382 -1493.6646298269811 -999740.39721186412
 -16518.721613571819 -1408.8875189237749 -999862.56399177795
 -9332.959996851896 -1216.3814789118337 -999955.70715596969
 -3403.938948180642 -982.00017169421619 -999993.72441795841
 1012.7708031196049 -761.59220225773561 -999999.19713598641
 4160.9776087011351 -578.25602828858814 -999991.17590372043
 6350.0180010682579 -434.31581882172401 -999979.74411542725
 7844.6172487898875 -324.15677321539511 -999969.17797630467
 8847.271486058964 -240.76799786712576 -999960.83314199024
 9505.8731793614788 -178.05585091315578 -999954.80231419078
 9926.2683763282748 -131.30020976386325 -999950.72476416372
 10183.749254417995 -96.997009556937599 -999948.13957659993
 10332.094125530626 -72.581393499610016 -999946.61985674151
 10410.230859174448 -56.186074982010282 -999945.810500041
 10446.991213946503 -46.463231877782178 -999945.42761879938
 10464.453310832425 -42.461141447785337 -999945.24520793487
 10480.292128660187 -43.541113657609181 -999945.07928239182
 10509.465137901339 -49.323644182120518 -999944.77282982669
 10565.482557890664 -59.656973031446483 -999944.18195185508
 10661.457629560316 -74.604728295668693 -999943.16226240981
 10811.102360354649 -94.451638716800872 -999941.55386434554
 11029.828107714126 -119.72815044661134 -999939.16242793703
 11336.128631997184 -151.25636279604399 -999935.73258942575
 11753.468436788195 -190.22207147019182 -999930.90751074848
 12312.974177133585 -238.28146506440541 -999924.1640688841
 13057.331814359941 -297.71697957801189 -999914.70508763369
 14046.413960295889 -371.66236341739767 -999901.2751876777
 15365.247960041908 -464.41079389433537 -999881.839757949
 17134.816716540146 -581.76326426783726 -999853.01900209044
 19525.346928172945 -731.16164191882444 -999809.09489261394
 22768.576513820612 -920.73294743495705 -999740.33837510715
 27154.584415854955 -1154.9530737915454 -999630.57907839108
 32959.517784937299 -1422.7197731496269 -999455.67488299916