# OOMMF OVF 2.0
#
# Segment count: 1
#
# Begin: Segment
# Begin: Header
#
# Title: Oxs_TimeDriver::Magnetization
# Desc: Oxs vector field output
# Desc:  MIF source file: /mnt/gpfs/work/plgrid/groups/plggspinsym/MF/switching-obrazki/p-ap/Anisotropy.mif
# Desc:  Iteration: 5300, State id: 37173
# Desc:  Stage: 0, Stage iteration: 5300
# Desc:  Stage simulation time: 7.79684e-10 s
# Desc:  Total simulation time: 7.79684e-10 s
# meshunit: m
# meshtype: rectangular
# xbase: 1.0000000000000001e-09
# ybase: 1.0000000000000001e-09
# zbase: 3.4999999999999998e-10
# xnodes: 35
# ynodes: 35
# znodes: 5
# xstepsize: 2.0000000000000001e-09
# ystepsize: 2.0000000000000001e-09
# zstepsize: 6.9999999999999996e-10
# xmin: 0
# ymin: 0
# zmin: 0
# xmax: 7.0000000000000005e-08
# ymax: 7.0000000000000005e-08
# zmax: 3.4999999999999999e-09
# valuedim: 3
# valuelabels: Magnetization_x Magnetization_y Magnetization_z
# valueunits: A/m A/m A/m
#
# End: Header
#
# Begin: Data Text
 -0 0 -0
 0 0 -0
 -0 -0 0
 -0 0 0
 0 0 0
 -0 0 -0
 0 0 0
 0 -0 0
 -0 0 0
 0 0 0
 0 0 0
 -0 -0 0
 0 0 0
 1273.4656880847351 -35096.618521969256 -999383.11255167029
 4091.7495054485239 -34822.322920056322 -999385.1426814571
 6802.7299106360424 -34583.703071524462 -999378.65213722829
 8886.3562512766748 -34516.496091650471 -999364.62023133994
 10563.732107450454 -34621.802169668808 -999344.65445034835
 12159.342279491011 -34875.19298129149 -999317.70289025095
 14006.255381792562 -35254.820817499698 -999280.20215518423
 16384.00893617648 -35720.576179650612 -999227.50396922766
 18974.036165364792 -36120.527808950872 -999167.30001656781
 0 0 0
 -0 0 -0
 -0 0 -0
 -0 0 0
 0 -0 0
 -0 0 0
 -0 -0 0
 0 0 0
 0 -0 0
 0 -0 -0
 0 -0 0
 -0 -0 0
 0 0 -0
 -0 -0 -0
 -0 -0 -0
 -0 -0 -0
 -0 0 -0
 0 0 -0
 0 0 -0
 -0 -0 0
 0 0 0
 0 0 -0
 0 0 0
 -3580.8604872882925 -32663.043989552109 -999460.005700832
 -1067.3800537825464 -31888.374423805217 -999490.86652976857
 802.10875889204556 -30651.267382851296 -999529.81767897448
 2372.7479998735043 -30168.336625298871 -999542.01589137397
 4871.7770271741374 -29094.466892592136 -999564.79419036827
 7216.8109616399652 -28451.965214277181 -999569.10882389196
 9085.8556770935556 -28206.502448090614 -999560.82378525671
 10634.560662434711 -28237.116852720388 -999544.68201844941
 12124.047411733063 -28480.923929295717 -999520.80741047685
 13833.636463996723 -28938.239712411119 -999485.47202274471
 16006.518428356567 -29675.298785944866 -999431.42236462026
 18564.24099745553 -30749.357005381713 -999354.71480347961
 20640.509086498936 -31424.316112840737 -999292.99093983974
 22413.368413593809 -33260.05276130962 -999195.38119762717
 24590.32297405204 -34475.590520045538 -999102.97250800231
 -0 0 -0
 0 -0 0
 -0 0 -0
 0 -0 -0
 -0 0 0
 -0 0 0
 -0 0 -0
 -0 0 0
 -0 0 -0
 -0 0 0
 0 -0 -0
 -0 0 -0
 -0 0 0
 -0 0 0
 -0 -0 0
 0 0 -0
 0 -0 -0
 -0 -0 0
 -8620.8896855535331 -29970.468756726714 -999513.6073428574
 -5722.345731628965 -29005.579234629447 -999562.87002498808
 -2796.9975493471325 -28155.867400119012 -999599.63182048826
 131.79268491130489 -26460.077480719869 -999649.86216695001
 2356.4230717043947 -24811.704139044035 -999689.36505697807
 4172.6061469121387 -23417.211507281412 -999717.07175738784
 6093.6987455250983 -22205.065261167838 -999734.86580810312
 7877.1871584194987 -21455.164601586948 -999738.7787989371
 9385.9347105673678 -21122.034093772378 -999732.84626711661
 10698.227592714771 -21097.209838440322 -999720.1886845174
 11981.418246756184 -21321.333255993944 -999700.87844563928
 13421.502348373973 -21804.706809720872 -999672.15527674626
 15162.190664567699 -22630.185104442495 -999628.92249893909
 17169.620103281384 -23899.445157633385 -999566.91655269708
 19169.804189045295 -25497.80534412968 -999491.06075541605
 21335.140322327472 -27492.904115236837 -999394.29256461991
 24134.902620554814 -29438.95164615571 -999275.16460756294
 27155.854659989731 -30578.284882455562 -999163.41408767202
 29842.993241935288 -32094.660103831386 -999039.20270787214
 -0 0 -0
 -0 -0 -0
 0 0 -0
 -0 0 0
 -0 0 -0
 0 0 -0
 0 -0 -0
 -0 -0 -0
 -0 -0 0
 0 0 0
 0 0 0
 0 0 -0
 -0 0 0
 0 0 0
 -0 -0 -0
 -11152.010533668308 -26985.191430717165 -999573.6251544978
 -7847.6825327463448 -26115.726803138714 -999628.12219965528
 -4002.6937822530494 -24077.293857500648 -999702.08680535667
 -734.97897906346452 -22077.166663960972 -999755.99949087179
 1969.3937823677506 -20170.690894494011 -999794.61126621824
 4055.9503492076847 -18564.084007383819 -999819.44572594308
 5718.2518548850558 -17264.430704838745 -999834.60683663178
 7204.3142448064391 -16259.403689930185 -999841.85231861041
 8532.8900944950019 -15613.886029989413 -999841.68564312113
 9695.0218868805932 -15302.219775350204 -999835.91084765515
 10747.504099744574 -15264.109207933969 -999825.73387851648
 11793.457130467521 -15463.153044617449 -999810.8847511264
 12947.10123473872 -15908.565158301226 -999789.62293285551
 14295.350831714335 -16653.774252253123 -999759.11836189474
 15853.673335424548 -17759.241617698564 -999716.5950302803
 17596.095145608204 -19216.088872545388 -999660.50205260643
 19664.588568910629 -21014.908840875898 -999585.75298111618
 22296.895790520375 -23080.598297680324 -999484.93456396204
 25491.747439542254 -25270.025219221821 -999355.59068726818
 29210.016716732021 -27527.752148921689 -999194.1742149198
 32634.142850045038 -28511.923695005622 -999060.60022786062
 -0 -0 -0
 0 -0 0
 -0 0 -0
 -0 -0 -0
 0 -0 -0
 0 -0 -0
 0 0 -0
 0 -0 -0
 -0 0 -0
 0 0 -0
 -0 0 0
 -0 0 0
 -0 0 -0
 -12371.928459433897 -25187.938049876611 -999606.17403204879
 -9421.3160332950883 -23700.036249956873 -999674.72063964442
 -5370.028548176505 -21176.664392845669 -999761.32735697704
 -1605.1377011669344 -18680.84482487704 -999824.20933361526
 1409.3782380282025 -16583.283728198399 -999861.49458501104
 3743.1429932786587 -14861.579089695519 -999882.55427699757
 5522.3201148075295 -13497.113273695239 -999893.66030284797
 6912.8499338549309 -12444.198363623387 -999898.67208276608
 8070.5669813717441 -11670.369338524846 -999899.32914674038
 9070.290723113254 -11171.062782957353 -999896.46323131747
 9954.1912082206818 -10923.965813200535 -999890.78456014488
 10775.311181648876 -10897.006296658092 -999882.56706610764
 11602.864624662452 -11071.049175713644 -999871.39443162933
 12510.307996981142 -11452.317203358431 -999856.15796698176
 13559.208221432436 -12070.700198994446 -999835.20945659536
 14790.111114507323 -12961.62710731983 -999806.60571730149
 16248.493494328264 -14142.729397117224 -999767.95791041653
 18048.270681467387 -15630.93649836371 -999714.92624127248
 20352.137899202065 -17444.873832464815 -999640.66887052031
 23294.793508554889 -19604.858042642645 -999536.39360281511
 26981.892630220424 -22128.881529182854 -999390.95957105712
 31125.859446917333 -24686.605678002692 -999210.56458275556
 34396.385916841427 -26352.399402276962 -999060.77877254423
 0 -0 -0
 -0 0 -0
 0 0 0
 0 0 -0
 0 -0 0
 -0 0 0
 -0 0 0
 0 -0 0
 -0 -0 -0
 -0 -0 -0
 0 0 0
 -13134.283193495592 -24015.253735243423 -999625.30889980227
 -10327.377750048487 -22253.012929841036 -999699.02905041969
 -6369.7949171823666 -19358.489127144658 -999792.31573933759
 -2486.9370233309987 -16504.428212843985 -999860.69979453098
 777.45264106734021 -14115.898914716119 -999900.06348895701
 3320.503351151317 -12241.102333571234 -999919.5616004091
 5247.1699056827647 -10793.514725212173 -999927.98103056266
 6700.0047824985477 -9691.8726872069292 -999930.58636073803
 7818.2138687780607 -8871.1955518904106 -999930.08626672602
 8717.9467183378802 -8287.8730151402488 -999927.65166580991
 9476.6298840774707 -7916.9259269306121 -999923.75497830205
 10148.069237370411 -7736.6716614617708 -999918.57698632462
 10781.332155706928 -7727.5791199334089 -999912.01982869126
 11427.884330872603 -7879.319328649005 -999903.65525216341
 12139.820638603604 -8195.9033972767647 -999892.7202067055
 12965.739937003995 -8694.7106876348971 -999878.13837184396
 13951.845827399318 -9399.4375832388378 -999858.48827277916
 15156.707312689037 -10333.97204219177 -999831.72746481129
 16673.716725037659 -11529.475441115126 -999794.50806984608
 18630.019273920749 -13032.793160285226 -999741.50093126297
 21168.057709850666 -14913.243063137881 -999664.69804336526
 24421.063675654921 -17256.903743771523 -999552.80546958977
 28371.518611787236 -20064.990034731767 -999396.04417196254
 32567.945501074009 -23041.471063347108 -999203.89287526102
 35769.40784896072 -25104.910695220216 -999044.69015210716
 0 -0 0
 0 0 0
 0 -0 -0
 0 -0 0
 0 -0 -0
 -0 -0 0
 0 -0 -0
 0 -0 0
 0 0 -0
 -14065.548920418127 -22873.212049832764 -999639.4232442471
 -11142.977259678455 -21143.340257016935 -999714.35581398266
 -7135.994026178113 -18168.878079134131 -999809.46657780942
 -3206.2419681543629 -15144.768390618392 -999880.17082190211
 164.77755072680151 -12558.997322576437 -999921.11910620739
 2857.2368831197937 -10513.006156001267 -999940.65468854562
 4918.3495520065881 -8952.6231283325506 -999947.82882748742
 6464.5918666139978 -7780.6822185352457 -999948.83370911144
 7621.5788371736171 -6911.3750314707522 -999947.07081485202
 8501.8320976106897 -6280.2865202809289 -999944.1368657588
 9196.5851700131643 -5843.4252317280188 -999940.63683939376
 9773.4842882712255 -5572.364205656515 -999936.7118783202
 10283.455217407018 -5447.1828816830948 -999932.28708120284
 10769.716652958745 -5454.0351254602883 -999927.13069706492
 11273.152177697586 -5586.5326186043703 -999920.85021429555
 11833.933988708577 -5847.3047739617114 -999912.87972164399
 12492.16180640639 -6247.5585739658027 -999902.45219484658
 13291.123730727506 -6804.9274533027155 -999888.51328152069
 14285.612554687252 -7542.8001566190069 -999869.50520542182
 15552.004713787188 -8494.8402583844199 -999842.97409061529
 17191.380600331966 -9712.0107795180884 -999805.04763662443
 19325.309545643362 -11269.314200143506 -999749.73616821889
 22081.429456766658 -13264.738663209826 -999668.17353627027
 25541.521383895364 -15784.911437984796 -999549.13198716287
 29637.701678047237 -18811.481006435726 -999383.67748407205
 33945.076873034719 -21972.586591828633 -999182.13414499583
 37272.971263030297 -24128.857800522987 -999013.77559794823
 0 -0 0
 0 -0 0
 0 0 -0
 0 0 -0
 0 0 -0
 0 -0 0
 -0 0 -0
 -15831.131040105067 -21191.510599489622 -999650.0863644752
 -12459.389804259306 -19849.937991069342 -999725.33406303963
 -8125.4731727642238 -17097.894083680465 -999820.80329608149
 -3977.2712300110652 -14144.140758528249 -999892.05647198018
 -451.30597466924621 -11525.199221475417 -999933.48084051209
 2374.4919110703149 -9396.1349373346984 -999953.03611539851
 4557.6705505173422 -7745.2872363359038 -999959.61826704745
 6203.0750834342025 -6499.6718900888927 -999959.63724783959
 7426.2366421272327 -5575.0754090579867 -999956.8838422579
 8334.1503683634037 -4899.2080811484111 -999953.26875700301
 9017.6946534623203 -4417.3692761536804 -999949.58274495776
 9549.8490533683307 -4091.1455409484865 -999946.02999922994
 9987.0306063042535 -3894.7522953034272 -999942.54341148387
 10373.388455536469 -3811.0467602221279 -999938.93250265159
 10745.879825913695 -3829.3697833868941 -999934.92887978931
 11138.102077273154 -3945.1861905094147 -999930.18665706762
 11582.653402812102 -4160.2707411028796 -999924.26427580544
 12113.149991665407 -4482.5431193503291 -999916.58572326053
 12767.427154496438 -4925.7575185637152 -999906.36047418113
 13592.665630778743 -5510.3619010003877 -999892.43189093575
 14651.101331233005 -6266.7603570911442 -999873.02841131238
 16023.618177860175 -7240.2470278786832 -999845.39929104305
 17810.24348677737 -8495.8690190334346 -999805.28876204346
 20125.506694526197 -10119.074590623553 -999746.25196082518
 23081.853709170777 -12202.778903265902 -999659.10200247075
 26754.630474331072 -14807.868471745574 -999532.34904104332
 31100.393918457517 -17862.756949435239 -999356.63674800389
 35733.563697494894 -20934.318490207246 -999142.06534147472
 39481.908140177271 -22844.99858720896 -998959.10074895516
 0 0 0
 0 0 0
 -0 0 0
 0 -0 0
 -0 0 -0
 -18967.128822659222 -18268.9412775362 -999653.18676470139
 -14955.851716678797 -17904.653444045314 -999727.83590559161
 -9909.9449626971746 -15776.333725691909 -999826.4350801151
 -5213.0969521675215 -13156.428254408862 -999899.86099396669
 -1312.3977802600145 -10688.657900810815 -999942.01342095132
 1764.4187028941724 -8601.7960652480961 -999961.447222388
 4122.9389617567131 -6935.0545761038111 -999967.45266650768
 5895.7424407095104 -5649.9770191585203 -999966.65843454772
 7208.966872427236 -4682.3469891429904 -999963.05252909486
 8173.0798114376912 -3966.7452120531993 -999958.73199788516
 8880.571490554612 -3447.5592450539889 -999954.62386312941
 9406.5235502741343 -3081.9837565700382 -999951.00814531022
 9810.5182921565483 -2839.1555735518782 -999947.84510316746
 10139.333214254537 -2697.848584069975 -999944.95625258691
 10430.307728837714 -2644.0680081427772 -999942.10711673216
 10714.761044045228 -2669.4419626601839 -999939.03212914767
 11020.844374686389 -2770.509849097165 -999935.43054761551
 11375.786856275237 -2948.5061574407027 -999930.94650822785
 11808.034972813233 -3209.3218884309167 -999925.13247897581
 12349.93742352562 -3563.7639668920292 -999917.38590346731
 13041.261609544279 -4028.6331676294758 -999906.84346614615
 13933.096907188083 -4629.0358877246708 -999892.21460981725
 15091.320903398027 -5401.6192987300565 -999871.5290187744
 16599.208747181452 -6397.7029003799671 -999841.75531259261
 18558.602911729002 -7684.1082978441527 -999798.24601648096
 21088.153176875807 -9337.6054341947456 -999734.0140859189
 24315.90132494349 -11426.568194989273 -999639.02008777205
 28353.419364116449 -13965.361831851242 -999500.4013402235
 33207.225006488603 -16807.540447568517 -999307.1533775148
 38512.898634266036 -19400.828174503888 -999069.74956953339
 42942.98296398751 -20446.346825240067 -998868.28316633264
 0 0 0
 -0 -0 -0
 0 -0 -0
 0 0 -0
 -17936.688732620696 -15756.982329838645 -999714.95572746464
 -12902.359885026033 -14241.619865796771 -999815.33563603414
 -7389.9093965526836 -12069.147278727321 -999899.85744727205
 -2782.1039432705406 -9874.4609276129559 -999947.37607488001
 789.61318332458177 -7933.8891317128919 -999968.21445197274
 3476.6115367820453 -6330.7411527206314 -999973.91710418079
 5466.4988943157205 -5059.9751173044551 -999972.25663597847
 6924.0133072660574 -4080.8934403575745 -999967.70165263303
 7982.110506630821 -3342.7107062523783 -999962.55539744801
 8745.5897882936406 -2796.809888682973 -999957.84536834445
 9296.4804818259781 -2402.130027674471 -999953.90154845687
 9698.8202935798545 -2126.6337832563954 -999950.70394178154
 10002.605602983367 -1946.7332745977587 -999948.07770739205
 10247.159413050926 -1845.8886391058472 -999945.79274033441
 10464.15263086005 -1813.1306988854469 -999943.60544322035
 10680.277926120749 -1841.951924473854 -999941.26771352382
 10919.512543087874 -1929.6726606381371 -999938.51841462927
 11205.063940863552 -2077.1777451038261 -999935.0638289951
 11561.276126881248 -2288.9311873488073 -999930.54643226974
 12015.821015895062 -2573.3367718512804 -999924.49614117015
 12602.354167352649 -2943.6451173624796 -999916.2543047613
 13363.579425550237 -3419.5327287525533 -999904.85624425986
 14354.594665373876 -4029.1649988352751 -999888.84954349056
 15646.582982148355 -4811.1533203652471 -999866.00964564772
 17331.042099253878 -5815.2494696261583 -999832.89496463339
 19524.603626214488 -7099.8110775625664 -999784.16797621967
 22373.344482170807 -8722.7912806014428 -999711.63160631317
 26049.140634941748 -10719.480647537843 -999603.1887738395
 30706.835062025733 -13051.483796576491 -999443.21952334093
 36274.680070494513 -15490.376451348935 -999221.79511016433
 41500.123179783055 -17369.732544225131 -998987.50350913033
 -0 0 -0
 -0 -0 -0
 0 0 -0
 -21374.078910232773 -13304.427372886887 -999683.02024342644
 -16920.456350202567 -12931.223558993457 -999773.21509138669
 -10800.58276577104 -11104.807857504107 -999880.0081281591
 -5224.2448543915662 -9120.3602930458692 -999944.76162127394
 -849.37863243946413 -7333.0202697861496 -999972.75231361284
 2405.7510617182061 -5828.6943547850105 -999980.11914434959
 4775.8774869224026 -4611.6194610944995 -999977.96173724544
 6482.8392507526241 -3654.0666944414597 -999972.30991255015
 7702.7948158838954 -2917.0825314467306 -999966.07821542106
 8568.7224319421493 -2360.6904439091836 -999960.50128818199
 9179.9007077987371 -1948.8732418541813 -999955.96468848689
 9610.7468248750301 -1651.6792551096355 -999952.45162012894
 9917.5975730155951 -1445.6355763594986 -999949.77443677653
 10143.683402621569 -1313.2321446634294 -999947.68918597011
 10322.834145199175 -1242.0137437601834 -999945.94678766083
 10482.356987369058 -1223.6452848725278 -999944.30989140901
 10645.347561011611 -1253.1706694988954 -999942.55141911935
 10832.596051895187 -1328.5430958060094 -999940.44314450002
 11064.254937856091 -1450.4146958557649 -999937.73734162061
 11361.475329590414 -1622.1699743512984 -999934.14055272145
 11748.225503043524 -1850.2409809483695 -999929.27540193684
 12253.458825180915 -2144.7799153364977 -999922.62333939318
 12913.748899472233 -2520.7170906243523 -999913.43679076061
 13776.552522110025 -2999.087708770166 -999900.60109668935
 14904.431839639676 -3608.313122072148 -999882.41208051587
 16380.770032355875 -4384.8725585303246 -999856.2112953004
 18317.569091408459 -5372.482618929007 -999817.78494538239
 20865.179036981172 -6618.4024161548223 -999760.3918205665
 24219.899262159546 -8164.309471709711 -999673.316904368
 28610.527879010155 -10026.302297855402 -999540.34983922285
 34188.277044320246 -12147.833153153941 -999341.57917221857
 40541.104067842127 -14235.689941069337 -999076.45553924574
 45668.10146204794 -15101.744423889428 -998842.51102173643
 -0 -0 0
 0 0 -0
 -20620.96245882236 -11171.707431012042 -999724.94660298841
 -15180.324725847653 -10183.587213767303 -999832.91218717012
 -8797.9954738142824 -8507.7747573061897 -999925.10371743445
 -3412.1190839182232 -6840.1877903590876 -999970.78421039379
 673.42732181864426 -5411.9197840875668 -999985.12869936856
 3641.4325154161284 -4250.3593413998433 -999984.33708468871
 5755.639458168861 -3329.1865368824801 -999977.89432138472
 7245.5976928593191 -2611.4460556480562 -999970.34039193962
 8287.1721147052613 -2060.9250129230845 -999963.5370184416
 9009.4711996490278 -1645.4492473091141 -999958.06008326029
 9506.3325908828392 -1337.8919441668713 -999953.91878116922
 9846.3361888599484 -1116.3123719058935 -999950.9005497942
 10080.310450830404 -963.63379160037596 -999948.72806115949
 10246.692952086561 -867.06626800697211 -999947.12534195138
 10375.347533348006 -817.43756643584516 -999945.84051306848
 10490.347727945275 -808.56455973369088 -999944.64788202115
 10612.084793711796 -836.75537004056821 -999943.34014322143
 10758.949624662037 -900.48305415193761 -999941.7153680725
 10948.788913799812 -1000.2383505529561 -999939.5599457816
 11200.322276352792 -1138.5659146211387 -999936.62621616351
 11534.700742254223 -1320.3052549048805 -999932.60146512894
 11977.381709737158 -1553.0656265386872 -999927.06249732978
 12560.515276415914 -1847.9381055479867 -999919.40604268154
 13326.120727788004 -2220.3854695614468 -999908.73803298431
 14330.495247935965 -2691.1711070099682 -999893.69160127314
 15650.494030515629 -3287.106981711363 -999872.1203055376
 17392.394617320115 -4041.319489970268 -999840.57346471772
 19703.463877260016 -4992.5772302475107 -999793.40250065527
 22783.255472702374 -6182.6025230940786 -999721.31051413866
 26879.957723281786 -7647.4590789866816 -999609.41584322311
 32215.425100388642 -9385.7197459799063 -999436.87877246714
 38642.974185278894 -11232.505599539021 -999189.9475895823
 44439.284091635105 -12527.774592300768 -998933.53377148544
 0 0 0
 -0 -0 0
 -19183.036252499616 -9616.8260393986711 -999769.737378094
 -13369.444738335591 -8139.4284769129954 -999877.49632215337
 -7055.2527004295689 -6510.8379452761601 -999953.91513738467
 -1936.6160666535527 -5100.6096424379739 -999985.11653898412
 1863.9331368750459 -3963.5300488156668 -999990.40804540401
 4582.9171066343606 -3070.1259046127989 -999984.78548312082
 6491.2678689873646 -2376.2870922743841 -999976.1080651416
 7814.3226196398209 -1842.0422310376969 -999967.7711018566
 8721.909420233198 -1434.6384335862149 -999960.93429125031
 9337.3152520036019 -1127.8938642641153 -999955.77022152103
 9749.0926223759707 -901.0952842726856 -999952.07046154421
 10021.123289805855 -738.06801934120176 -999949.51489743206
 10200.159418677638 -626.42410998866512 -999947.78080691188
 10321.197184033606 -556.92508958638609 -999946.57993471494
 10411.254571319285 -522.933332734793 -999945.66468332696
 10492.057013336609 -519.95794423139239 -999944.82166935841
 10582.009084269404 -545.31074489807543 -999943.86028413207
 10697.727143137579 -597.88289094110905 -999942.5989375686
 10855.344317592624 -678.04646354652289 -999940.84912695689
 11071.76832664555 -787.686613710492 -999938.39585042407
 11366.063256005045 -930.37600319040143 -999934.97138891649
 11761.137485701527 -1111.7050781629123 -999930.21744362812
 12285.963210766706 -1339.7711812678178 -999923.62714417616
 12978.646106464996 -1625.8095041829056 -999914.45208512677
 13890.81135719216 -1984.9324257799781 -999901.54785513948
 15093.940287675863 -2436.9472534443803 -999883.11029573635
 16688.344106607052 -3007.2535981131064 -999856.21746167913
 18814.952392613624 -3727.8349665067567 -999816.03348462365
 21667.619639095246 -4638.0746876880858 -999754.47111896775
 25494.693018141817 -5783.3533649110486 -999658.22832194366
 30547.202263782594 -7201.7294890415578 -999507.38042608881
 36809.82200736989 -8862.1835164838758 -999282.99230353453
 42810.955673708973 -10423.804902130334 -999028.81157935888
 -0 0 -0
 -23120.819055276479 -8401.2406605385931 -999697.37765064533
 -18420.409312936583 -7864.7457064466953 -999799.39702708193
 -11771.353086740522 -6312.4662143930282 -999910.79002919025
 -5603.896107692316 -4871.0378953677082 -999972.43428918393
 -765.92479903033518 -3727.0852951870361 -999992.76107100141
 2778.868469222547 -2847.3411171242001 -999992.08523797512
 5291.0923140504437 -2175.3446956369462 -999983.63597489882
 7037.0394221716133 -1662.7591383986057 -999973.85731238918
 8232.973902707492 -1272.5060930879717 -999965.29883239465
 9040.7389146063797 -976.85175873093829 -999958.65454553638
 9577.3970475461574 -755.03000977698309 -999953.85063285707
 9926.6797319297548 -591.38698905568492 -999950.5544230321
 10148.655054493289 -474.09388994987017 -999948.38868592028
 10287.004384793956 -394.26642689410124 -999947.00964339706
 10374.231370576332 -345.34146829735101 -999946.12658019736
 10435.321442528299 -322.61788149243529 -999945.4985068402
 10490.32180909099 -322.91502363194411 -999944.92292037222
 10556.208363793006 -344.32917863304448 -999944.22239562811
 10648.313356219644 -386.08030163986308 -999943.23057095008
 10781.524485338266 -448.44700804856882 -999941.77711757447
 10971.431798838432 -532.79208169994979 -999939.6700885914
 11235.589928136906 -641.68505209797854 -999936.67287446791
 11595.079956353758 -779.13034658351842 -999932.47125828883
 12076.604289549628 -950.90866391223915 -999926.62300868169
 12715.437464885781 -1165.0394645869776 -999918.47684354882
 13559.686073962128 -1432.384008850818 -999907.03727377916
 14676.452633137038 -1767.4438704836925 -999890.73297049408
 16160.542410066706 -2189.4793154575391 -999867.0126818564
 18145.965448889398 -2724.161488758195 -999831.63726805081
 20818.703153546412 -3405.9838991380539 -999777.46567557903
 24423.191648869044 -4281.2252432873283 -999692.54214488319
 29235.683729827881 -5408.9856416309713 -999557.91111429769
 35413.146893008066 -6845.3057674965112 -999349.31371171889
 42427.185131580969 -8504.3561129794325 -999063.36630311585
 48076.481466092257 -9478.5247792430018 -998798.68316785921
 -23011.945228209068 -5769.3065425302111 -999718.54313043156
 -17390.561480558212 -5333.0435782812447 -999834.54982191091
 -10488.361802145266 -4366.2912285456523 -999935.46280128229
 -4496.0023309254702 -3386.8123150159404 -999984.1576072009
 108.46686862642791 -2579.3033186909574 -999996.66770911205
 3451.6269739008635 -1953.7294435055005 -999992.13457531494
 5805.3517235252039 -1477.8622314108259 -999982.05674631533
 7429.6209944320453 -1117.4585549292758 -999971.77561082039
 8532.1867134793756 -844.88111714827357 -999963.24330736487
 9267.745860251358 -639.39738241052305 -999956.84909782838
 9747.981610971874 -485.7409127182425 -999952.3693207982
 10052.65806387319 -372.66788206204836 -999949.40131213667
 10238.876842121495 -291.86554104784682 -999947.53873166651
 10348.047341068474 -237.19275359737384 -999946.42939300765
 10410.892750474075 -204.15981414983506 -999945.78434578562
 10450.973677690528 -189.56814086539771 -999945.36911428708
 10487.168127374389 -191.25898527335698 -999944.98984927603
 10535.455518906201 -207.94296987992934 -999944.47892707027
 10610.269136585224 -239.09651072926118 -999943.68092493503
 10725.622122620356 -284.91940891123136 -999942.4382688303
 10896.179203778132 -346.35332013020883 -999940.57489339658
 11138.438558915346 -425.16462963115026 -999937.87528101297
 11472.206703189515 -524.09826748079581 -999934.05472279282
 11922.597693243595 -647.11223098653943 -999928.71391414979
 12522.871172444353 -799.70994682185005 -999921.26598127675
 13318.539853996153 -989.40487560966517 -999910.8148100758
 14373.30206200851 -1226.3851470831864 -999895.94667010498
 15777.400628368965 -1524.4936387486314 -999874.36688243854
 17658.710439075014 -1902.6696035807367 -999842.26245643804
 20195.446895243007 -2386.8813403056124 -999793.20197837334
 23624.617304553623 -3011.841887426101 -999716.36290782911
 28225.291632879893 -3818.5764262638868 -999594.29339423275
 34208.813207489176 -4830.3772328817886 -999403.03409321466
 41309.052213846451 -5942.5977477930091 -999128.74432537542
 47517.981526421703 -6666.6775726807509 -998848.1350244371
 -22849.185795467511 -3331.1679151590424 -999733.37346954923
 -16798.213655975436 -3113.9141883250909 -999854.05112766137
 -9714.993999952123 -2632.3804079734923 -999949.34344944113
 -3782.3448713225416 -2087.3394979871505 -999990.66839700763
 690.15210351160761 -1603.4012043955597 -999998.47639616509
 3904.2368531729098 -1214.4584832960634 -999991.6409776567
 6151.7712004267796 -914.29475682961061 -999980.65970107436
 7693.408991729324 -686.18271510590534 -999970.16986076499
 8732.5968543309755 -513.839772760031 -999961.7381284486
 9419.4015655502881 -384.21112663815762 -999955.56264063914
 9861.7358716586568 -287.48968362672179 -999951.33057328314
 10136.530370673696 -216.45893261371899 -999948.6006278398
 10298.791265096334 -165.83142559490528 -999946.95229217864
 10388.360102075121 -131.74050678109703 -999946.03085307963
 10434.759593271105 -111.38210575831516 -999945.55021073879
 10460.605310121256 -102.76906521605363 -999945.28109045292
 10484.006105000361 -104.56449612480885 -999945.03583059821
 10520.287134743898 -115.97218084123807 -999944.65352291148
 10583.290633279537 -136.67166637343649 -999943.98607133329
 10686.453789324927 -166.79238004452912 -999942.88431175437
 10843.831914500804 -206.92542907747924 -999941.18251589022
 11071.228428932669 -258.17497583757824 -999938.67874322983
 11387.611650199317 -322.25381936209993 -999935.10712114722
 11817.045019568082 -401.6316867329619 -999930.09562618623
 12391.435248868549 -499.75168567580647 -999923.09833342955
 13154.510925133107 -621.34311550524467 -999913.28262757533
 14167.563802509225 -772.8766024148299 -999899.3363322427
 15517.547818954332 -963.2176810047124 -999879.13165611436
 17327.925271981967 -1204.4852622768144 -999849.13473034604
 19771.557057011854 -1512.8466817971112 -999803.37908333715
 23081.125265392599 -1907.9991857884913 -999731.77462536935
 27540.405537758565 -2407.1301410998321 -999617.79285249813
 33400.171931279918 -3001.9562417966149 -999437.55021195963
 40520.31513368756 -3600.648904281969 -999172.2270904727
 46983.40296500476 -3971.1619272648804 -998887.77633865131
 -22735.792164721526 -1495.3452843111663 -999740.39014992467
 -16518.794943102053 -1410.6134134159145 -999862.56034688361
 -9332.9705567479359 -1218.1621153697397 -999955.70488979539
 -3403.9130796691556 -983.84225082152363 -999993.72269538359
 1012.8355698905251 -763.50122734541253 -999999.19561466877
 4161.0954418889305 -580.23541947051388 -999991.17426684417
 6350.2066309983102 -436.366781960997 -999979.74202469492
 7844.8943885161407 -326.2785868609958 -999969.17511207156
 8847.6532236478706 -242.95834868300497 -999960.82923466316
 9506.3732366929562 -180.31108482707523 -999954.79715624999
 9926.8977708550301 -133.61553045393225 -999950.71820942103
 10184.51611857432 -99.366623080839247 -999948.13153368328
 10333.003599632901 -74.998651125646859 -999946.61028067535
 10411.284996492224 -58.643593881453832 -999945.79938397196
 10448.188915291559 -48.953033155045091 -999945.41498623358
 10465.790276537995 -44.974771349135587 -999945.231105763
 10481.760870955657 -46.069784571630223 -999945.06377431517
 10511.055047582928 -51.858356829217115 -999944.75599029846
 10567.180068120653 -62.188657699680356 -999944.16386015224
 10663.246463765227 -77.124365240239939 -999943.14299698314
 10812.96390020045 -96.950396739142718 -999941.5334969908
 11031.741860825712 -122.19750370378082 -999939.14101773512
 11338.072830434045 -153.68822564913199 -999935.71017561993
 11755.420744295936 -192.60891356384795 -999930.88410396175
 12314.912536528112 -240.61644818620937 -999924.1396390741
 13059.235416545078 -299.99408383986025 -999914.6795471526
 14048.264362588634 -373.87654496337274 -999901.2483664212
 15367.030315387394 -466.55814080793238 -999881.81136711722
 17136.521062290904 -583.84116508476177 -999852.98858150921
 19526.969291077727 -733.16886444437637 -999809.06173815089
 22770.119283002248 -922.66947518479185 -999740.30145277095
 27156.054679406301 -1156.8193708062304 -999630.53698013467
 32960.920982205229 -1424.5154531365497 -999455.62605036574