# OOMMF OVF 2.0
#
# Segment count: 1
#
# Begin: Segment
# Begin: Header
#
# Title: Oxs_TimeDriver::Magnetization
# Desc: Oxs vector field output
# Desc:  MIF source file: /mnt/gpfs/work/plgrid/groups/plggspinsym/MF/switching-obrazki/p-ap/Anisotropy.mif
# Desc:  Iteration: 11700, State id: 82050
# Desc:  Stage: 0, Stage iteration: 11700
# Desc:  Stage simulation time: 1.72103e-09 s
# Desc:  Total simulation time: 1.72103e-09 s
# meshunit: m
# meshtype: rectangular
# xbase: 1.0000000000000001e-09
# ybase: 1.0000000000000001e-09
# zbase: 3.4999999999999998e-10
# xnodes: 35
# ynodes: 35
# znodes: 5
# xstepsize: 2.0000000000000001e-09
# ystepsize: 2.0000000000000001e-09
# zstepsize: 6.9999999999999996e-10
# xmin: 0
# ymin: 0
# zmin: 0
# xmax: 7.0000000000000005e-08
# ymax: 7.0000000000000005e-08
# zmax: 3.4999999999999999e-09
# valuedim: 3
# valuelabels: Magnetization_x Magnetization_y Magnetization_z
# valueunits: A/m A/m A/m
#
# End: Header
#
# Begin: Data Text
 -0 0 -0
 0 0 -0
 -0 -0 0
 -0 0 0
 0 0 0
 -0 0 -0
 0 0 0
 0 -0 0
 -0 0 0
 0 0 0
 0 0 0
 -0 -0 0
 0 0 0
 2378.0269738673633 29596.408126749699 -999559.10161115858
 1266.3517632297692 29613.773601309604 -999560.6138530582
 823.50221542067789 29151.940413801713 -999574.65264692029
 1181.8680804548433 28331.467908856252 -999597.88470863109
 2143.1471751262702 27245.662581100649 -999626.47063325741
 3476.9352033122345 25919.733384777337 -999657.98068282031
 4934.4305654461577 24331.518577911032 -999691.76679548982
 6218.2725151083805 22462.774775740196 -999728.34151898592
 6971.2621089187869 20573.54548601709 -999764.03752622718
 0 0 0
 -0 0 -0
 -0 0 -0
 -0 0 0
 0 -0 0
 -0 0 0
 -0 -0 0
 0 0 0
 0 -0 0
 0 -0 -0
 0 -0 0
 -0 -0 0
 0 0 -0
 -0 -0 -0
 -0 -0 -0
 -0 -0 -0
 -0 0 -0
 0 0 -0
 0 0 -0
 -0 -0 0
 0 0 0
 0 0 -0
 0 0 0
 5535.311860956218 32978.39011411478 -999440.73666630324
 4198.6480223819626 32562.55885402577 -999460.88023276941
 3528.0475304843644 31240.254912029312 -999505.67749945959
 2475.6874844010604 29679.799137254242 -999556.39185323194
 1208.5763954506067 28825.448733243611 -999583.72978376527
 678.08858724156494 28251.683570476049 -999600.61153007578
 961.17158054131028 27665.108091428228 -999616.78554508206
 1842.9100985105599 26955.631564542997 -999634.93216740154
 3076.6153165140586 26078.396191780528 -999655.16639002005
 4400.116194737815 25019.530290320912 -999677.27896632953
 5547.5642475168588 23844.242918608594 -999700.29339325393
 6479.6558022995514 22855.316960305434 -999717.7844508558
 8055.6149050548111 22667.221936107078 -999710.61018586799
 10433.766288266475 21630.689589089103 -999711.58330237539
 12093.310022099826 20116.190614382886 -999724.50741585565
 -0 0 -0
 0 -0 0
 -0 0 -0
 0 -0 -0
 -0 0 0
 -0 0 0
 -0 0 -0
 -0 0 0
 -0 0 -0
 -0 0 0
 0 -0 -0
 -0 0 -0
 -0 0 0
 -0 0 0
 -0 -0 0
 0 0 -0
 0 -0 -0
 -0 -0 0
 10619.644563149823 33240.923263288445 -999390.94661196356
 8532.4806432237892 32498.9503677127 -999435.34808364161
 5931.5597064101348 31440.19954859553 -999488.03417139198
 3830.2303021520615 30231.385483609436 -999535.58849476383
 2620.8166702549906 28782.181139820805 -999582.27143583097
 1651.2635265827832 27268.364309560904 -999626.78517367004
 796.8605888970078 26241.498748964481 -999655.31497442175
 480.30000774745469 25665.380048990159 -999670.47449589276
 804.49118529983991 25287.33115159236 -999679.90060677053
 1641.1327983494837 24936.073639705606 -999687.70069185761
 2794.3895049693674 24535.435761843481 -999695.05539402901
 4055.8028265061766 24089.493659601201 -999701.57885173755
 5264.5322394478226 23703.392467871672 -999705.17348156904
 6484.4035431376151 23574.847220000876 -999701.04485753295
 8122.6906563936909 23698.890718962288 -999686.14298448269
 10067.229117402198 23375.335739517821 -999676.06982310151
 11607.592785506495 22673.502185834317 -999675.53540554084
 12989.561878504008 22361.823337341109 -999665.55414260121
 14339.322907054209 21186.625740371495 -999672.70179209393
 -0 0 -0
 -0 -0 -0
 0 0 -0
 -0 0 0
 -0 0 -0
 0 0 -0
 0 -0 -0
 -0 -0 -0
 -0 -0 0
 0 0 0
 0 0 0
 0 0 -0
 -0 0 0
 0 0 0
 -0 -0 -0
 14478.251125017634 31406.290983105544 -999401.83366403996
 11064.999304294128 30899.642539744906 -999461.24381154065
 7775.4433567146925 29508.149627409668 -999534.29735360888
 5050.6322520371659 27940.645162405497 -999596.82445562165
 2991.575109502447 26538.92836366182 -999643.30426391237
 1687.3430485954455 25299.485022929683 -999678.49278205971
 862.69272349576454 24222.978270263913 -999706.2083857354
 378.86038719630039 23486.538705316532 -999724.08141669305
 337.80242051874546 23102.701851115213 -999733.03989450284
 781.9237771021136 22942.869817213432 -999736.47193635837
 1639.4625424827066 22882.462542348982 -999736.81790287665
 2780.9072884985762 22856.113510374184 -999734.89717517281
 4068.4170022819148 22866.704381746564 -999730.24452289799
 5410.8539243540454 22980.010223012123 -999721.28205313266
 6833.8190687056731 23267.61160384259 -999705.91534070112
 8437.4437695035704 23652.237383549545 -999684.64087900682
 10084.466372082623 23872.50679225284 -999664.14708013041
 11473.25578212339 23931.627997757434 -999647.7587546201
 12617.888561663043 23903.215552883554 -999634.64584540995
 13366.112218413416 23375.838300777992 -999637.39287198568
 13397.340118355585 22937.970541889961 -999647.11812977912
 -0 -0 -0
 0 -0 0
 -0 0 -0
 -0 -0 -0
 0 -0 -0
 0 -0 -0
 0 0 -0
 0 -0 -0
 -0 0 -0
 0 0 -0
 -0 0 0
 -0 0 0
 -0 0 -0
 17738.262843162778 30261.301437757345 -999384.61448363331
 14212.657951103296 29156.209810104159 -999473.81945875601
 10105.948393405373 27427.216146333179 -999572.71752560965
 6636.5643896880019 25749.576365225523 -999646.39514686039
 4027.8262260306951 24319.677860239393 -999696.11877043266
 2190.0769533595817 23187.715366931821 -999728.72991577082
 1031.7854114800832 22320.888486296739 -999750.32550934807
 395.62188978925934 21686.377294837926 -999764.74458901887
 174.0157193928942 21312.519116836072 -999772.84732454282
 354.66320146120955 21190.609938923219 -999775.39090759284
 928.56815444845802 21254.409700247212 -999773.66830171959
 1844.1301691385956 21429.379460339609 -999768.66368168592
 3017.4771389158755 21669.813794587473 -999760.62835151877
 4359.2495036546234 21970.418824290384 -999749.11734917283
 5804.7222606964142 22356.251992769077 -999733.21601130767
 7331.4346364740786 22843.119497667678 -999712.17955858994
 8917.1525972752243 23382.092402923201 -999686.83203512186
 10439.883434666808 23878.684120585141 -999660.35095853428
 11712.758020185054 24314.093652043044 -999635.75173632125
 12598.404305141099 24673.732062571431 -999616.16991476726
 12917.417089389712 24856.712393011399 -999607.56508979551
 12624.74681457887 24940.702987203505 -999609.2121936311
 12085.661387209948 25006.589459541912 -999614.22922667302
 0 -0 -0
 -0 0 -0
 0 0 0
 0 0 -0
 0 -0 0
 -0 0 0
 -0 0 0
 0 -0 0
 -0 -0 -0
 -0 -0 -0
 0 0 0
 20652.786615576118 29740.075344961551 -999344.28017750103
 17085.907712857159 28221.68657261398 -999455.65592707763
 12721.557641154624 26039.261388367981 -999579.97120667202
 8717.1048657629053 24063.395663941938 -999672.42888452217
 5542.6470529071303 22538.932089737486 -999730.60151417856
 3229.1877248469045 21433.593973494419 -999765.05909939518
 1658.0707432978852 20673.601324208827 -999784.903371569
 706.83272866832874 20190.068252566307 -999795.90993934881
 258.45366096640066 19933.55007435946 -999801.27364548692
 227.19844493911685 19882.757308978631 -999802.29262722691
 569.20769244814551 20013.339072743904 -999799.55104098853
 1252.2500273214175 20283.489225036144 -999793.48464306712
 2231.5507811809957 20647.854591112125 -999784.31988199102
 3447.7414916379344 21074.844642700074 -999771.95599891327
 4837.1529273237165 21553.582191353526 -999755.99275337101
 6343.6142900751402 22087.371742157778 -999735.91841408925
 7919.3282292645081 22674.711675479874 -999711.52923772531
 9501.2124845789185 23292.009674305715 -999683.55455446732
 10976.215952060784 23906.857552595662 -999653.93254132383
 12188.05229177723 24513.483082046743 -999625.20002674963
 12965.37573479015 25120.091822789091 -999600.36015343189
 13127.906308753245 25735.642160661515 -999582.58027965203
 12599.55697840973 26390.205794560592 -999572.31264279643
 11588.652919818309 26990.608784396609 -999568.51198952436
 10571.787953447172 27419.697890628773 -999568.10546708328
 0 -0 0
 0 0 0
 0 -0 -0
 0 -0 0
 0 -0 -0
 -0 -0 0
 0 -0 -0
 0 -0 0
 0 0 -0
 23602.75638577553 29351.199319285828 -999290.45676895836
 19882.891148885836 27674.390371436715 -999419.23073209403
 15315.868909777824 25233.327016792417 -999564.25674751005
 11020.473751404215 22990.512813551151 -999674.93990740029
 7447.158254106459 21281.401513369936 -999745.78858005954
 4704.8160285812019 20110.892694724749 -999786.68559906236
 2737.6737806614728 19378.05971810636 -999808.47963189019
 1434.5994534506888 18979.769463474175 -999818.83872805757
 687.56493816583497 18835.986685587875 -999822.35065037245
 404.63417366953388 18890.59145373556 -999821.47497726488
 515.94415647747508 19107.015989459032 -999817.31118320092
 973.39570449435462 19454.944455153782 -999810.26081804605
 1738.4375249550583 19902.191564670011 -999800.42038693652
 2770.1520126673317 20417.520810215196 -999787.7030158909
 4021.370183543555 20977.19441133858 -999771.86692588823
 5440.896721004262 21568.075634292592 -999752.57676902495
 6976.2318836375007 22184.551973297333 -999729.55235025927
 8570.4086864312303 22821.022134001043 -999702.83036695817
 10149.394947687673 23467.348502364144 -999673.08323094528
 11607.319585402814 24116.02533044415 -999641.77956621209
 12804.623062504139 24775.785166017118 -999611.02539819677
 13576.176777379143 25473.905756664844 -999583.29695409071
 13746.860464395708 26254.136773367092 -999560.77560579462
 13188.231286817407 27162.864946225087 -999544.02070315951
 11916.540503593751 28170.370134739565 -999532.10369097104
 10208.844928880833 29078.686490464504 -999524.99192226678
 8657.8143332316849 29610.391971700035 -999524.02019073733
 0 -0 0
 0 -0 0
 0 0 -0
 0 0 -0
 0 0 -0
 0 -0 0
 -0 0 -0
 27006.626890500473 28601.484959132224 -999225.99904232356
 22936.961761034603 27053.354780693167 -999370.80794882274
 18051.336318153895 24587.518656414712 -999534.69333657913
 13463.825381917222 22237.706331403951 -999662.04780575889
 9587.1025737933687 20402.327315809864 -999745.88396468945
 6509.3789883798745 19140.256694351767 -999795.61839350942
 4193.6866365635769 18377.974538398277 -999822.31573628134
 2554.3184675023776 18007.965681859714 -999834.58063280035
 1494.8172182294015 17932.711374462619 -999838.07858284959
 928.18039630902138 18076.741679246934 -999836.17152582225
 782.44931347921306 18385.239204943711 -999830.67104007618
 1001.0141566388745 18818.79079260919 -999822.40977273649
 1539.8901993994141 19346.211007716764 -999811.65869268542
 2361.4722198892141 19939.709356522897 -999798.39539765823
 3428.2542827767943 20574.532954551116 -999782.44416786719
 4699.4440888494237 21230.887932743848 -999763.55435815069
 6130.1080614455286 21895.022266230841 -999741.48147164332
 7670.3469903016039 22558.024347894669 -999716.11036062031
 9261.6938098744249 23213.359361769781 -999687.63170047931
 10829.819494852851 23856.374066633784 -999656.73529772309
 12276.651942104989 24488.549870052742 -999624.72695624863
 13476.941194839406 25124.408424788071 -999593.48545162857
 14280.244011422719 25795.642337129571 -999565.23522348912
 14520.421177278822 26551.093179777006 -999541.99352493091
 14042.64092365961 27445.617309230762 -999524.65818828309
 12753.803862032912 28500.983560089931 -999512.39833388547
 10710.039545183181 29636.393163640809 -999503.3663040814
 8265.3436975042623 30568.059437002496 -999498.51317339018
 6152.0283623166106 30864.143681795005 -999504.65590802487
 0 0 0
 0 0 0
 -0 0 0
 0 -0 0
 -0 0 -0
 31340.560881271984 26619.529283974283 -999154.22728643205
 26691.819420764514 25826.900878944252 -999310.02094795334
 21241.812882712129 23707.378813102114 -999493.24438700825
 16206.911947818036 21471.466695200656 -999638.09057231934
 11971.377987468293 19639.707095901846 -999735.44901352213
 8575.6842797317204 18342.222300726218 -999794.98924539774
 5952.0474077736517 17550.199130043427 -999828.26707497705
 4007.7114991216613 17179.410164921403 -999844.39095037442
 2650.6133613182642 17136.635040808418 -999849.64369063347
 1798.4489236604106 17339.845267951572 -999848.03612726706
 1382.1543786857715 17723.923542938221 -999841.96360400761
 1345.5380512991969 18239.381713318486 -999832.74325362453
 1643.1179896623407 18848.633800365347 -999820.9985628085
 2237.0072348849499 19521.77192746941 -999806.92947160697
 3092.9791752701203 20233.528360996192 -999790.49695918104
 4176.7193152502323 20962.210270728021 -999771.54428215616
 5451.1901918719923 21689.888073768754 -999749.88536175352
 6874.9366745424732 22402.592165721861 -999725.39185017091
 8400.2449642964857 23089.890606507252 -999698.10084661038
 9969.9805911183284 23744.340762060099 -999668.34788783221
 11512.853525115504 24362.145600219294 -999636.90411342005
 12938.373015577432 24945.969798528069 -999605.07056263019
 14133.432026337332 25509.111903768597 -999574.67520392779
 14961.676886780098 26078.929770494364 -999547.91663369571
 15267.376147027988 26697.563151568847 -999526.96179110289
 14887.794738312798 27415.869075951221 -999513.24337931606
 13679.512731559878 28273.315308373374 -999506.62357630243
 11571.446289925121 29255.70484415895 -999504.98016009456
 8672.4599276786539 30213.643121060311 -999505.84000702866
 5451.8205406163497 30737.3729083867 -999512.62701352767
 2809.504328169462 30219.139918372119 -999539.34903435584
 0 0 0
 -0 -0 -0
 0 -0 -0
 0 0 -0
 30503.134928219202 23739.162710628781 -999252.72624764405
 25178.808127654054 22320.589376821506 -999433.74913555023
 19537.830944620124 20447.306259078592 -999600.01041853079
 14764.299021845232 18773.439250533607 -999714.74604163959
 10954.450378900839 17530.379725575636 -999786.320072231
 7994.7908566681544 16749.688178585177 -999827.75079764519
 5752.1697802300541 16383.052697009571 -999849.24269969133
 4113.1176169330774 16356.59605052935 -999857.76189871598
 2987.3664285757477 16595.149631637578 -999857.82821885485
 2304.149320949065 17032.541316786894 -999852.28080561932
 2007.9626548550425 17614.521759340383 -999842.83600432239
 2054.5998434656872 18297.961290992029 -999830.46724536072
 2407.575855316898 19048.581003878553 -999815.66057960875
 3034.9040756490849 19838.450714961928 -999798.59233271645
 3906.1234424643244 20644.052078759789 -999779.25829326047
 4989.7232025169333 21445.238396245011 -999757.57282077684
 6251.1092655024186 22224.860939201924 -999733.45407122583
 7650.9134585988468 22968.603476817018 -999706.91043804144
 9143.1229713723678 23664.806211445488 -999678.13832718437
 10672.515897947544 24304.529254118577 -999647.63154930924
 12171.303276197214 24882.420622381651 -999616.288643062
 13555.47252141836 25398.754495622012 -999585.49030825391
 14721.627732813677 25862.309174711838 -999557.10924441332
 15545.040231815885 26293.108589209391 -999533.40322617895
 15879.919760443527 26723.639826115781 -999516.72083204577
 15563.895621995771 27196.096982199819 -999508.94816504885
 14430.430154901162 27751.493782507987 -999510.68892652867
 12338.172625778901 28404.098372772725 -999520.37332506955
 9240.9497408218194 29089.896454259553 -999534.08284668718
 5369.7259296737247 29585.153496485902 -999547.84014374681
 1790.4976662982183 29518.880349078467 -999562.61925956584
 -0 0 -0
 -0 -0 -0
 0 0 -0
 36007.792118409576 21305.287846408275 -999124.37845172163
 30441.061077236907 20755.529572759289 -999321.04440597375
 23928.411519592519 19201.38395593207 -999529.25818923675
 18278.049275177131 17724.115891226989 -999675.83177276468
 13818.354248489635 16592.857229810161 -999766.83790512593
 10392.459165079503 15865.842612477991 -999820.1197368945
 7795.0490375093923 15523.249726584116 -999849.12158206594
 5859.6379680614691 15513.011168492241 -999862.49611002486
 4464.574885503057 15773.560989125679 -999865.62214370281
 3523.2246460109045 16245.073113871238 -999861.8326987077
 2973.5254308451813 16874.430854352388 -999853.19508908596
 2769.8195503945235 17616.662476035508 -999840.97800743475
 2876.7991489235842 18434.481742083179 -999825.93180491053
 3265.0175091069859 19297.005023110596 -999808.46428593679
 3907.510891599019 20178.300757771452 -999788.76145771972
 4777.198793651005 21056.161933097621 -999766.88103594095
 5844.8611822284556 21911.263533019544 -999742.83399689698
 7077.5328270203263 22726.651265382152 -999716.66378596716
 8437.0753832701139 23487.431576928084 -999688.52965155896
 9878.6114134722302 24180.637003462471 -999658.79670547997
 11348.545018891999 24795.435851207938 -999628.1292995424
 12782.084149319124 25323.968767732207 -999597.57649298571
 14100.418880975858 25762.988859542314 -999568.63025627402
 15207.846071818116 26116.16582052087 -999543.22933062317
 15989.153670440619 26396.550517525055 -999523.67109822796
 16307.72369276031 26628.324095379106 -999512.37636351062
 16005.275026427062 26846.349698702943 -999511.43299073027
 14905.302596611376 27091.163198679937 -999521.83609516302
 12825.753568644639 27396.032795421943 -999542.3740054589
 9617.9356837743399 27762.352126503854 -999568.28036787303
 5290.4241226681634 28122.719364773297 -999590.47818000556
 406.01718008847223 28270.589371973274 -999600.22455310123
 -3556.6757291760064 27559.808620168533 -999613.82893924438
 -0 -0 0
 0 0 -0
 35215.85237228997 18751.570652090013 -999203.79419804679
 29251.034800490215 17856.1611159069 -999412.59471416683
 22768.719252892039 16580.197425810347 -999603.2625381453
 17411.042803778393 15536.710142234995 -999727.69603849691
 13298.97022631202 14862.435980475242 -999801.1029137976
 10209.028796635213 14549.669041036881 -999842.02895348694
 7907.560047594794 14555.971826939587 -999862.7876755225
 6217.2059353267414 14829.998232709955 -999870.70039219351
 5015.0784629288437 15319.943701304859 -999870.06571504066
 4218.5519190023142 15977.382660298759 -999863.45420913992
 3772.0387423946449 16758.999358879239 -999852.44294556533
 3636.9622615907524 17627.043225036403 -999838.01680704765
 3784.5525516524526 18549.015911428884 -999820.78952715383
 4190.7469082068455 19496.975030497691 -999801.13302846951
 4832.6085266632253 20446.719012465499 -999779.26442612999
 5685.8181759081399 21377.01848818397 -999755.31734131125
 6722.9046684292507 22268.970550939517 -999729.41114254529
 7911.9342616537742 23105.49098240463 -999701.72430715605
 9215.396922433536 23870.953502168355 -999672.57341514551
 10589.036736780019 24551.047720762577 -999642.49527358531
 11980.423424987377 25133.011148950678 -999612.32545679656
 13327.151125406455 25606.426523966551 -999583.26214655733
 14554.646252931701 25964.705388680228 -999556.90000446246
 15573.613488789077 26207.205170808087 -999535.2144672228
 16277.156308441836 26341.699481860687 -999520.46955073287
 16537.662080342216 26386.657958858341 -999515.0073984277
 16203.797076199178 26372.446435681493 -999520.8507226404
 15098.887655216267 26340.11968773745 -999539.00458481896
 13025.422166968752 26335.911825921605 -999568.28587429156
 9792.7594032686284 26398.115210056323 -999603.54209887946
 5325.4104522813577 26525.481216096039 -999633.95242947259
 6.5635629380112297 26584.646827233075 -999646.5657971279
 -4520.8718370870201 26203.238677393005 -999646.41348861356
 0 0 0
 -0 -0 0
 34387.13007662091 16491.804810608726 -999272.50820743688
 28240.457352950139 15454.671859851363 -999481.68051555625
 21950.897402776169 14451.092770797793 -999654.60236070666
 16918.307613833265 13780.157880982219 -999761.91071487567
 13128.961750385541 13469.293136875469 -999823.08860405383
 10324.867316869642 13476.702589660796 -999855.8774154397
 8264.6345165303137 13750.870409898203 -999871.29640733183
 6770.089981402105 14243.08987019182 -999875.64240389073
 5720.4510043000373 14908.977114704212 -999872.49129161506
 5036.9503000080049 15708.352578596465 -999863.92913783132
 4668.8213852889676 16605.060926621503 -999851.22596239054
 4582.5674784960311 17566.777954453984 -999835.19061273499
 4754.179450586139 18564.73585059779 -999816.35731795733
 5163.6353416008214 19573.357838381406 -999795.08927229175
 5791.1017679218685 20569.826946448367 -999771.64660721715
 6614.3859664338279 21533.614619260305 -999746.24447392463
 7607.2675113213172 22445.996839878928 -999719.11390493845
 8738.3977212535628 23289.595959859711 -999690.56968908699
 9970.489909255286 24048.022165131257 -999661.08354827692
 11259.561593305631 24705.737306101957 -999631.35645941412
 12554.028270310691 25248.305905680547 -999602.38066097116
 13793.493481664147 25663.19868910066 -999575.47977659758
 14907.107962103139 25941.252855210714 -999552.31455512531
 15811.372528560672 26078.771309843112 -999534.84090637474
 16407.238483695266 26080.083249729934 -999525.20317550085
 16576.368172788003 25960.21358105473 -999525.53310509573
 16176.584832285585 25747.128534931402 -999537.59482841333
 15037.323231190114 25482.832601380785 -999562.15622273891
 12958.83757694463 25222.187870869537 -999597.87403118319
 9728.7778000795279 25026.625947943357 -999639.44443793246
 5200.3814608744224 24943.646173173376 -999675.3325696541
 -425.22654341658182 24952.893701354638 -999688.53763475537
 -5612.4178342877849 24902.810926527982 -999674.12228886422
 -0 0 -0
 41189.046569884842 15442.721150531397 -999032.02391421387
 34984.859005452185 14670.958237864392 -999280.15222196386
 27733.169634213136 13490.526856157243 -999524.32536041015
 21513.015291553813 12699.86875389815 -999687.90305109671
 16751.83783052523 12327.561392686741 -999783.68018257304
 13236.946923108648 12300.876519112593 -999836.72250673827
 10670.66516558207 12552.171928770729 -999864.28073253739
 8806.9397176561797 13026.862889034046 -999876.36168482341
 7469.6200896821938 13680.354088479377 -999878.51896504394
 6540.9725327997003 14474.546054534048 -999873.84363970649
 5945.5392778869191 15375.592227625599 -999864.11163034779
 5636.0641472970992 16352.741660443724 -999850.40012049512
 5582.6199527678682 17377.809983284023 -999833.4091610699
 5764.5848009984875 18424.932996536827 -999813.62833587418
 6164.8800981476179 19470.403854642536 -999791.42706222122
 6765.9713802081988 20492.483908785787 -999767.1127490293
 7547.2218285038343 21471.136424618107 -999740.9813263166
 8483.2536760410203 22387.67746395864 -999713.372074635
 9543.0052309894545 23224.391959963868 -999684.72963692481
 10689.206644330432 23964.217357029243 -999655.66929207172
 11878.023569889941 24590.646072780219 -999627.03679012018
 13058.647099007205 25088.020122004076 -999599.95147173852
 14172.62193886199 25442.373955101048 -999575.82123364042
 15152.704771317665 25642.916402894694 -999556.31976215716
 15921.019993025753 25684.135648835581 -999543.31887035014
 16386.249317314796 25568.382827359736 -999538.76794894983
 16439.586406294195 25308.66934200739 -999544.50188819855
 15949.327191862529 24931.338282499994 -999561.92771312082
 14754.618136644598 24478.266497122848 -999591.4744098899
 12661.178615503648 24008.26323713304 -999631.58105994377
 9448.9013133712087 23597.005129322712 -999676.89760887099
 4922.2298911182579 23333.048193727333 -999715.6298242457
 -902.40938752587158 23297.150079137722 -999728.1772839491
 -7232.6478434768524 23427.337978396023 -999699.37913375662
 -12120.737705256986 22906.720726603362 -999664.12852669368
 40887.913528040008 12782.850683828154 -999081.96723578114
 34436.216575197883 12266.174923923898 -999331.6206048528
 27255.383981537474 11554.217122745444 -999561.72601330618
 21315.104009329771 11130.789271795693 -999710.84413007065
 16832.837827119773 11050.976674578953 -999797.24518785486
 13557.282799779508 11259.715074716634 -999844.6973903114
 11188.537992351936 11698.437686973344 -999868.973002602
 9484.7813737770266 12320.190710940311 -999879.11860541301
 8274.0019106377385 13087.438707130199 -999880.12273495574
 7441.6042323284701 13968.461738110567 -999874.74445708457
 6914.670735009171 14934.898302934547 -999864.55889850785
 6648.3009219603564 15960.437079423236 -999850.52109957172
 6614.9012428291007 17020.25732375701 -999833.26306048688
 6796.105712571034 18090.867475058167 -999813.24929265853
 7176.8534134527581 19150.095704738505 -999790.86143532093
 7741.2127459638932 20177.076460296958 -999766.45233311213
 8469.6232400768185 21152.143543989725 -999740.39245479391
 9337.252391553513 22056.609261635738 -999713.11970267561
 10313.183826569137 22872.477576340792 -999685.19445317343
 11360.156331166419 23582.206655611113 -999657.3544857176
 12434.588003727857 24168.6820915729 -999630.55967048858
 13486.62301855451 24615.575086619509 -999606.01461911504
 14459.939047673342 24908.229734455716 -999585.15908062225
 15291.032275830687 25035.150495011054 -999569.62017241784
 15907.668060450536 24990.055523796895 -999561.12530539918
 16226.152304329657 24774.343050287662 -999561.37575829914
 16147.086862431441 24399.7205019881 -999571.87096540595
 15549.422228752641 23890.701543891621 -999593.64236078085
 14283.259191470212 23286.700049750252 -999626.78941075935
 12163.965347282419 22643.450646140456 -999669.60146333638
 8976.5167728576707 22033.000970327445 -999716.94444721122
 4516.9563589666795 21538.484680896574 -999757.81606492179
 -1255.0596545319411 21225.2917299732 -999773.93035437807
 -7789.107297678448 21023.858367402747 -999748.63200049056
 -13062.818054906118 20566.988895764698 -999703.13681223686
 40745.288343916145 9977.5340298549399 -999119.74772419257
 34149.556962118673 9880.2782862667791 -999367.8941512364
 27086.177424951864 9697.7411150443531 -999586.060732026
 21381.536687945387 9669.2050853458913 -999724.63026669482
 17127.560854761541 9866.1315247288294 -999804.63397000893
 14044.9728342656 10273.459327949397 -999848.58592264936
 11834.278015249731 10856.858636564304 -999871.03092569089
 10258.158858398974 11583.626239430338 -999880.28772447596
 9148.1094942012041 12425.641727110671 -999880.95067380462
 8391.7254801064901 13358.057181771188 -999875.56288359943
 7917.5341664362923 14357.770660731559 -999865.57450208126
 7681.8394751679798 15402.502963018007 -999851.86515040917
 7658.2603825575834 16470.4351414103 -999835.02429859166
 7829.6869437413443 17540.194556747592 -999815.50176883861
 8182.25520729441 18590.992064457947 -999793.6915753081
 8701.0304064966167 19602.757104975015 -999769.98553854786
 9367.1393800678561 20556.176819755197 -999744.81758816307
 10156.115501233713 21432.61042023759 -999718.70870185271
 11037.196958933568 22213.925980026837 -999692.3135524469
 11973.305853469639 22882.373911652889 -999666.46283203212
 12921.412969988141 23420.655777379518 -999642.19097125763
 13832.984388924433 23812.352413782748 -999620.73828798556
 14654.184133950959 24042.836569642026 -999603.51985027245
 15325.485758641727 24100.71702214902 -999592.05925481429
 15780.311735227644 23979.753202574113 -999587.8916823084
 15942.299800951278 23681.066315482334 -999592.44203586201
 15720.81062110458 23215.378166901064 -999606.87389092275
 15004.449610190217 22604.955699381997 -999631.8734762934
 13652.964923455702 21884.895351045227 -999667.26859704324
 11489.75423793647 21103.180072809024 -999711.27898927208
 8302.5647288199452 20318.025301855065 -999759.0936154353
 3874.3561665718676 19587.995869976017 -999800.63001685124
 -1896.201922734756 18943.80630291118 -999818.75188507338
 -8619.830446240021 18336.27967952465 -999794.71861507278
 -14293.575162919045 17686.334043757204 -999741.41021423857
 40936.814770986966 7625.0783548673016 -999132.64153288887
 34287.526241220701 7796.8224397613003 -999381.59634050739
 27283.351296814715 7992.7710330435548 -999595.7854819257
 21716.717059423547 8287.1927911174007 -999729.8168184259
 17614.093832743256 8719.7918719195495 -999806.83580787841
 14668.729703423382 9290.8952711127477 -999849.24245305569
 12574.990142725519 9985.1709313373049 -999871.07468132221
 11095.618806966237 10784.127391678365 -999880.28775433451
 10062.91314660723 11669.61133787283 -999881.27192693565
 9364.8370353588634 12623.923642851772 -999876.46055858361
 8929.9471043290232 13629.25324709507 -999867.24093783612
 8714.5273974557385 14667.289565853847 -999854.45322258282
 8692.3235696579122 15719.153571643637 -999838.66284613719
 8846.5417259124879 16765.570378655171 -999820.31103062234
 9163.7619076580195 17787.153968890292 -999799.80127092777
 9629.5075247026343 18764.685097041343 -999777.55484809738
 10225.289379197804 19679.296444802469 -999754.05412958912
 10926.933909870426 20512.537615174591 -999729.88247621933
 11703.976424932003 21246.360381199196 -999705.76126498205
 12519.840758935361 21863.128979630907 -999682.57821099926
 13332.489158093713 22345.799025209752 -999661.39767361945
 14095.184254534506 22678.408284859965 -999643.44422323699
 14756.982737349121 22846.980941624348 -999630.05503153161
 15262.548951297676 22840.866131951523 -999622.60350286774
 15550.857348347985 22654.429357115841 -999622.40254319762
 15552.33464566339 22288.907003880766 -999630.59652635769
 15184.017033659924 21754.14923129047 -999648.03937083005
 14342.42630673546 21069.919248220314 -999675.12388300896
 12894.355996309048 20266.357013573444 -999711.46355177858
 10667.286655009591 19383.005934825109 -999755.22408054979
 7445.6425270003956 18465.165040610405 -999801.78039818641
 2992.0551125651541 17555.165611271223 -999841.41930936428
 -2847.5009384503132 16676.958193745155 -999856.87515954475
 -9759.854740614388 15829.122875151279 -999827.07710105821
 -15689.133904937167 15073.156825340846 -999763.29749627807
 41447.064588723544 5581.8027473195953 -999125.10944078874
 34783.914077343172 5925.6522273151995 -999377.28909913742
 27799.177842286266 6389.7868201054798 -999593.10538622993
 22292.682270055502 6938.2412808294484 -999727.41141029808
 18268.923726378533 7566.5869823076173 -999804.47747913143
 15404.631282820101 8272.9355872118758 -999847.11624918447
 13386.280636915444 9052.8892885302575 -999869.41781726619