# OOMMF OVF 2.0
#
# Segment count: 1
#
# Begin: Segment
# Begin: Header
#
# Title: Oxs_TimeDriver::Magnetization
# Desc: Oxs vector field output
# Desc:  MIF source file: /mnt/gpfs/work/plgrid/groups/plggspinsym/MF/switching-obrazki/p-ap/Anisotropy.mif
# Desc:  Iteration: 40900, State id: 286450
# Desc:  Stage: 0, Stage iteration: 40900
# Desc:  Stage simulation time: 6.02156e-09 s
# Desc:  Total simulation time: 6.02156e-09 s
# meshunit: m
# meshtype: rectangular
# xbase: 1.0000000000000001e-09
# ybase: 1.0000000000000001e-09
# zbase: 3.4999999999999998e-10
# xnodes: 35
# ynodes: 35
# znodes: 5
# xstepsize: 2.0000000000000001e-09
# ystepsize: 2.0000000000000001e-09
# zstepsize: 6.9999999999999996e-10
# xmin: 0
# ymin: 0
# zmin: 0
# xmax: 7.0000000000000005e-08
# ymax: 7.0000000000000005e-08
# zmax: 3.4999999999999999e-09
# valuedim: 3
# valuelabels: Magnetization_x Magnetization_y Magnetization_z
# valueunits: A/m A/m A/m
#
# End: Header
#
# Begin: Data Text
 -0 0 -0
 0 0 -0
 -0 -0 0
 -0 0 0
 0 0 0
 -0 0 -0
 0 0 0
 0 -0 0
 -0 0 0
 0 0 0
 0 0 0
 -0 -0 0
 0 0 0
 17939.035056414399 30247.666194591537 -999381.44354947121
 15488.414922897553 29457.256039909655 -999446.03609688452
 13270.785464613366 28617.35244636497 -999502.34286474402
 11529.792303799235 27979.886101003562 -999541.99004504364
 9985.4030582198066 27599.33938472853 -999569.19129757676
 8326.8294844624616 27500.319705050519 -999587.1129255601
 6258.9712349861165 27709.896851784895 -999596.41200613731
 3595.2047391329752 28214.365273282168 -999595.43020919687
 883.52653861401495 28785.976558838742 -999585.20744077116
 0 0 0
 -0 0 -0
 -0 0 -0
 -0 0 0
 0 -0 0
 -0 0 0
 -0 -0 0
 0 0 0
 0 -0 0
 0 -0 -0
 0 -0 0
 -0 -0 0
 0 0 -0
 -0 -0 -0
 -0 -0 -0
 -0 -0 -0
 -0 0 -0
 0 0 -0
 0 0 -0
 -0 -0 0
 0 0 0
 0 0 -0
 0 0 0
 23460.899876343949 28605.549147062407 -999315.42004263448
 21249.563023971241 26841.403568660229 -999413.82576275931
 19365.913767067577 24605.660789263136 -999509.64119466615
 17324.103627052053 23995.271200974468 -999561.95525515638
 14973.084288131622 22780.346696512053 -999628.36221832316
 13016.385273933038 21830.014956319694 -999676.95990325173
 11457.896355830499 21194.817044695999 -999709.70603547734
 10063.595676212726 20855.874254236034 -999731.84232130821
 8586.8801430372714 20830.66137204217 -999746.14229623938
 6809.7708582492451 21183.116636400609 -999752.42064744525
 4628.982629619366 22003.945235407129 -999747.16749480809
 2393.963142057969 23217.601789522309 -999727.56884444179
 1078.1082637114046 23615.906490392063 -999720.52426826209
 -890.61693998202782 25047.0229704267 -999685.8773843837
 -3498.0575846994743 26168.081954558405 -999651.43679182185
 -0 0 -0
 0 -0 0
 -0 0 -0
 0 -0 -0
 -0 0 0
 -0 0 0
 -0 0 -0
 -0 0 0
 -0 0 -0
 -0 0 0
 0 -0 -0
 -0 0 -0
 -0 0 0
 -0 0 0
 -0 -0 0
 0 0 -0
 0 -0 -0
 -0 -0 0
 28484.238886559608 26457.126596817328 -999244.0485623586
 25672.598296854139 24360.829916967079 -999373.5376036556
 22675.845702101949 22925.73323725539 -999479.97317466466
 19947.113943092889 20638.998566876366 -999587.98731452227
 17802.774169488926 18415.234014476773 -999671.91637459851
 15871.664534161029 16806.2141855919 -999732.78501290677
 14045.926512845403 15516.055078989366 -999780.95800189243
 12512.922582649162 14612.06780770317 -999814.93999780971
 11245.445586680289 14039.403315905391 -999838.20446514757
 10098.352318228985 13759.614290013633 -999854.33753874747
 8912.101413349561 13783.895339511182 -999865.28026413044
 7555.989357918651 14169.146215190933 -999871.06284778321
 5983.3801099063867 14989.638747417654 -999869.74646334909
 4316.6717613947367 16224.113097741429 -999859.06231783296
 2691.6397190503599 17580.307275612569 -999841.83142721013
 523.69467357631208 19332.566117267972 -999812.97132574266
 -2320.8687244332582 21254.671776102525 -999771.40011907427
 -5134.052153132684 22289.926111709185 -999738.36612506956
 -8149.8160481337163 23597.286401796751 -999688.32571599702
 -0 0 -0
 -0 -0 -0
 0 0 -0
 -0 0 0
 -0 0 -0
 0 0 -0
 0 -0 -0
 -0 -0 -0
 -0 -0 0
 0 0 0
 0 0 0
 0 0 -0
 -0 0 0
 0 0 0
 -0 -0 -0
 30732.37814805836 22647.916514686429 -999271.03070733952
 27365.519446448139 21353.941688041024 -999397.38718880492
 23709.266740139112 18718.436101988689 -999543.64127862931
 20612.325882680372 16304.181452879335 -999654.59319149714
 18107.51819916322 14079.638390532829 -999736.9061745489
 16150.068016434125 12186.637315009735 -999795.3096379363
 14529.83549660773 10723.061102672609 -999836.93662568287
 13137.984316668741 9624.0453920156051 -999867.37676473265
 11974.453628030193 8857.8582575946275 -999889.06925088365
 10993.615752019579 8374.6969526013163 -999904.49787149637
 10104.744285898163 8145.5136702360405 -999915.76882753707
 9209.3059626611193 8175.9435724986388 -999924.1684399799
 8226.289539420166 8499.9038213642107 -999930.03745034139
 7111.9397360766015 9156.7130715939802 -999932.78520054312
 5858.5231577503664 10146.560792625949 -999931.36014953128
 4401.2790757415323 11419.622258683932 -999925.10768055345
 2480.543100722206 13062.199839044803 -999911.60901416198
 -51.297947189521587 15069.099362065319 -999886.4533600487
 -3164.7088163494768 17215.225783611411 -999846.79857432516
 -6896.061796905351 19518.318194479452 -999785.71683463873
 -10003.859161305554 20641.377064661319 -999736.89356487955
 -0 -0 -0
 0 -0 0
 -0 0 -0
 -0 -0 -0
 0 -0 -0
 0 -0 -0
 0 0 -0
 0 -0 -0
 -0 0 -0
 0 0 -0
 -0 0 0
 -0 0 0
 -0 0 -0
 32134.650758380823 20295.25400963307 -999277.4724196085
 28832.322633958007 18393.095000961996 -999415.02451574977
 24792.583536503451 15639.477979832971 -999570.27493323549
 21280.645539197627 12957.843130410518 -999689.56602879614
 18520.323791976076 10699.697382043705 -999771.2308736298
 16390.197308823379 8826.7667467309948 -999826.7097957409
 14746.379237678268 7310.6055855368231 -999864.54049803736
 13438.853468195175 6132.3752121179296 -999890.88964332407
 12369.928063147381 5249.9602230452128 -999909.70732230053
 11490.467251997092 4626.3915425273826 -999923.27988882549
 10750.218658197597 4227.1897106888164 -999933.27960717015
 10086.791748770022 4033.3552560945836 -999940.99259786087
 9435.4685133790717 4046.7744762967141 -999947.29638630012
 8738.6532180290214 4285.6661572303119 -999952.6333809637
 7948.6585480709746 4773.0113368792991 -999957.01767129172
 7015.1693187847759 5524.0253471469914 -999960.13547710644
 5847.9054211019293 6554.8030221484423 -999961.41753545997
 4290.592634917979 7925.6483475602117 -999959.38663183316
 2191.8661467466013 9691.1115260250808 -999950.63782178017
 -575.76496331039743 11875.070421748935 -999929.32310098095
 -4080.4955152970688 14517.141811659434 -999886.29461052711
 -7864.3842286081444 17217.323080369126 -999820.8415744548
 -10615.25287014286 18892.91862948312 -999765.15944103734
 0 -0 -0
 -0 0 -0
 0 0 0
 0 0 -0
 0 -0 0
 -0 0 0
 -0 0 0
 0 -0 0
 -0 -0 -0
 -0 -0 -0
 0 0 0
 33374.223934995083 18946.38864093685 -999263.32642312243
 30031.258315751591 16642.227016104527 -999410.40609146992
 25855.32385244545 13539.270472124848 -999574.00445568189
 22070.185169535947 10691.088167387885 -999699.25855748216
 19036.9674895723 8329.7219025702161 -999784.08149051201
 16715.828460595596 6440.3939601325146 -999839.538328283
 14955.613140746591 4933.2011096518982 -999875.98889182066
 13612.893204561247 3738.6519324623682 -999900.35084518732
 12569.703061916425 2809.8483893835428 -999917.05021814874
 11743.211145848247 2108.2177364981931 -999928.82367194502
 11078.445632297677 1603.2031902278804 -999937.34692824783
 10528.971653019595 1271.5400336179305 -999943.7603894897
 10048.094160061324 1101.0147115415737 -999948.91048010834
 9589.1591155490605 1092.0654717418261 -999953.42662569159
 9106.9889051709615 1255.4504464244055 -999957.74240577687
 8555.607635859491 1607.8975275490184 -999962.1074038368
 7879.1498066742761 2170.0538943365709 -999966.60437457578
 6996.8878568114187 2973.1319540992513 -999971.10160579288
 5795.58679107635 4071.7445701800539 -999974.91572034068
 4144.3612695282945 5536.5754268165738 -999976.08501514222
 1905.7049731058089 7451.2352222848631 -999970.42325371678
 -1026.0915501971815 9902.3462729816929 -999950.44410931726
 -4573.6618900937447 12833.441361820689 -999907.18789282022
 -8269.0074357445683 15834.851699124207 -999840.42776219745
 -10948.76098971574 17748.107480215083 -999782.54101262486
 0 -0 0
 0 0 0
 0 -0 -0
 0 -0 0
 0 -0 -0
 -0 -0 0
 0 -0 -0
 0 -0 0
 0 0 -0
 34920.161493109146 18017.026660077121 -999227.68630158843
 31354.985616506354 15570.859640080631 -999387.01873051061
 26966.960795023995 12277.236130338335 -999560.92985794495
 22959.515829147487 9252.1448003267087 -999693.58227883256
 19688.744479901361 6783.7382187387184 -999783.14360494434
 17156.038511574872 4839.5822413666356 -999841.11177042441
 15239.592375882341 3318.5358052759066 -999878.36367446522
 13797.084802147207 2122.6751776820174 -999902.562603503
 12706.854390202396 1180.8380644981542 -999918.5674208533
 11874.78873570995 445.22682008517609 -999929.39309011272
 11232.725692090893 -117.57402012386763 -999936.90403438767
 10731.452625503569 -531.18677199499245 -999942.27521650458
 10330.983807863196 -811.43237052615666 -999946.30473394424
 9994.3781096567836 -966.05371253118142 -999949.58830254327
 9685.3819351794464 -994.61591486859697 -999952.60093464004
 9366.9724070037828 -889.50489824777912 -999955.73332471214
 8998.3618744973919 -637.06868065263416 -999959.31098573783
 8529.3954381887088 -216.95052250810488 -999963.60051050351
 7893.5108141440724 402.03417990615748 -999968.76493995823
 7003.4322253465452 1267.5967927362112 -999974.6722469707
 5752.8485346948573 2445.3814598723225 -999980.46223076398
 4020.5556130483405 4019.2947798861155 -999983.84007044567
 1686.9465026845744 6081.8898444665692 -999980.08221534931
 -1317.9600076068068 8683.2193898460082 -999961.43159746216
 -4929.0178680719391 11734.075749409425 -999919.00484447414
 -8740.382770152557 14784.633514545738 -999852.49928220501
 -11627.937041108036 16663.299998779999 -999793.54144409171
 0 -0 0
 0 -0 0
 0 0 -0
 0 0 -0
 0 0 -0
 0 -0 0
 -0 0 -0
 37306.977217037704 16993.329199257543 -999159.35476462054
 33229.535032729531 14702.860194764486 -999339.59388368169
 28414.513818177213 11437.390877577705 -999530.79066849663
 24066.423100222302 8359.5767181913252 -999675.40969869483
 20516.150267359597 5818.1892079609433 -999772.59226913599
 17747.745769063607 3820.0797858177198 -999835.19867553504
 15640.768534273608 2269.8533761681606 -999875.09926255688
 14056.225922702344 1063.4962724416362 -999900.64080811956
 12869.269034837338 116.26369012555718 -999917.18076911941
 11980.037293300426 -632.17585108327319 -999928.03694073122
 11313.064816052187 -1222.2522628544043 -999935.25823618891
 10812.829500266431 -1680.8011668339418 -999940.12702043098
 10437.784225184068 -2025.4110746105382 -999943.47358760599
 10154.236557358847 -2266.7717850447989 -999945.87514805596
 9931.8801237424159 -2409.5387275624971 -999947.77457641647
 9741.0912902748914 -2452.7477410141173 -999949.54631170968
 9550.8482045291348 -2390.2153549668142 -999951.53291003627
 9326.1399424265128 -2210.5686084432573 -999954.06719518965
 9024.4007292126698 -1896.153488624969 -999957.48149280134
 8591.413826043321 -1420.4513209368729 -999962.08424445486
 7957.8776836638017 -744.80843439457237 -999968.05821144499
 7037.3978351877522 183.832519652043 -999975.22031164053
 5725.5785626405686 1433.7371705016146 -999982.58092221222
 3902.8994890308504 3083.5344904571634 -999987.6295187982
 1446.6940255686366 5202.6508257441055 -999985.41964409733
 -1739.0760258563087 7809.5977573211921 -999967.99238647905
 -5635.9926300737188 10774.867061040866 -999926.06618034048
 -9874.7326350580734 13607.441265173444 -999858.65360939945
 -13321.745611756218 15122.22749535133 -999796.90404073312
 0 0 0
 0 0 0
 -0 0 0
 0 -0 0
 -0 0 -0
 40966.842881011849 15106.32375271835 -999046.30361512292
 36148.869601798062 13571.443572482412 -999254.2595084951
 30574.457057742064 10671.925940180563 -999475.51874588267
 25635.711107176165 7725.0677808184673 -999641.5025616989
 21651.76787918204 5206.1622453463651 -999752.01766357105
 18561.35816783128 3191.8395255021305 -999822.62834135175
 16209.413465693202 1621.6242586068249 -999867.30382079305
 14438.231227137061 402.758986604955 -999895.68219101266
 13112.544354030118 -550.16349787238266 -999913.87554163323
 12124.461812457295 -1303.6314951878758 -999925.6462210993
 11391.707902213673 -1904.7548062914345 -999933.29822553578
 10853.060664877392 -2385.0606889489436 -999938.2593739049
 10463.099155001677 -2764.9290382050835 -999941.43764696864
 10187.108877740682 -3056.9921259760463 -999943.43720625248
 9996.6258714286432 -3268.2465813352001 -999944.69148821919
 9866.0563421833212 -3401.1573618321449 -999945.54504775547
 9770.2926172503794 -3454.1926895979518 -999946.30352586263
 9682.7823860430799 -3422.0275720578657 -999947.26533580781
 9573.4836943907885 -3295.3032193020322 -999948.74337970256
 9406.391646468348 -3059.7161344363922 -999951.07776999264
 9136.6524524760862 -2694.3662560741641 -999954.62995699991
 8707.4429092281207 -2169.731959245662 -999959.73553999024
 8046.6124024215269 -1445.9104591454118 -999966.58012745064
 7062.8315231416145 -471.82280300781588 -999974.94658322213
 5641.6943827428713 812.7559688145966 -999983.75522416714
 3643.4525758623195 2468.9120042736668 -999990.31481651997
 907.68804360496313 4538.9074036956663 -999989.28715361562
 -2715.68638379 6999.7083009761391 -999971.81416836253
 -7257.362302960033 9654.7872406784136 -999927.0552274005
 -12320.826008162207 11905.130102761981 -999853.22178993491
 -16480.301590877727 12492.383100291039 -999786.14714545291
 0 0 0
 -0 -0 -0
 0 -0 -0
 0 0 -0
 39061.227030970025 12003.18846684707 -999164.72316103335
 33614.881765935388 9803.8503163053665 -999386.77409841586
 27942.467406864434 7164.9052778114037 -999583.85473534744
 23301.597675350276 4771.9309253567499 -999717.0920920677
 19726.662668312605 2799.6842333352411 -999801.49057108548
 17025.985844624636 1237.4609229621792 -999854.28163132002
 15000.271638568795 17.096308737679287 -999887.48944993073
 13486.031725171284 -937.35001630906038 -999908.6199864737
 12357.892979421007 -1691.2448117564822 -999922.20806025492
 11522.309046484463 -2294.5155800910038 -999930.98341460037
 10910.448582841056 -2782.4428506145746 -999936.6080524826
 10471.780078660773 -3178.5303209721114 -999940.11759053986
 10168.633801683112 -3497.6302190971223 -999942.1810632142
 9971.7355268571409 -3748.4607322985312 -999943.25515637198
 9856.6656530476921 -3935.326307611027 -999943.67808844952
 9801.2059398894617 -4059.1378771896334 -999943.72829765675
 9783.3823477466503 -4117.9447221282298 -999943.66239358857
 9779.8692716326568 -4107.0901139181269 -999943.74140139821
 9764.3941289166796 -4018.997821215441 -999944.25057790498
 9705.8714040431223 -3842.5227950386129 -999945.51405507
 9566.0780002853971 -3561.8950034842683 -999947.90017064207
 9296.688322380558 -3155.4112695125659 -999951.80632166308
 8835.3532662112284 -2594.1822959971882 -999957.60247666307
 8100.3710834224776 -1841.3407474841456 -999965.49613102269
 6983.6418556130448 -852.56924216136065 -999975.25062979432
 5342.2964026187192 420.54348594692777 -999985.64140307694
 2991.9843861467716 2021.4456726920021 -999993.4808721632
 -286.21415008617322 3966.8455819950304 -999992.09107751912
 -4684.8049865584253 6197.0461601112302 -999969.82415527292
 -10108.816681923681 8468.269031464577 -999913.04634198174
 -15163.442097158821 10149.62369550348 -999833.51372246258
 -0 0 -0
 -0 -0 -0
 0 0 -0
 43294.748404051046 10247.357501247981 -999009.78795248608
 37821.114399085185 9008.1983073077263 -999243.92200746853
 31303.544172738297 6686.108390220541 -999487.56074141315
 25729.110225831831 4441.0945555895014 -999659.0866721191
 21431.167715223728 2543.0974492993669 -999767.09172973142
 18214.720332514993 1015.2398870075239 -999833.58277824428
 15824.72739311648 -189.8421671915026 -999874.76313930692
 14049.115296678243 -1136.1236197376554 -999900.6608571182
 12729.319071563692 -1883.8022184158176 -999917.20443503512
 11750.796843997383 -2482.0751563752028 -999927.87643732037
 11031.650138147519 -2967.8326699857548 -999934.74520314205
 10513.235770716672 -3366.9368514477737 -999939.06594845455
 10153.001124504503 -3696.429623144581 -999941.62478427042
 9919.1081538752642 -3966.7742758406812 -999942.9363695092
 9786.4159058657042 -4183.7123502844497 -999943.35970328213
 9733.5149198535455 -4349.6012656587263 -999943.16821314127
 9740.5744955067476 -4464.2809833784659 -999942.59405417822
 9787.7663534707972 -4525.5507972300029 -999941.85781963915
 9853.9875004939695 -4529.3368732292138 -999941.19028962345
 9915.6049827302977 -4469.5601248513776 -999940.85015570628
 9944.9538443623751 -4337.7167014274655 -999941.13932113594
 9908.3273274329586 -4122.1828307981041 -999942.41467110603
 9763.140143592067 -3807.3312929568883 -999945.09115399024
 9453.8358946826283 -3372.5693407397944 -999949.62411259429
 8905.9757540252194 -2791.4918334469103 -999956.44463607133
 8017.9502054921977 -2031.4614929622564 -999965.79223426699
 6650.1860318411482 -1054.2230317518843 -999977.33156284154
 4613.6243250396064 181.26243741209029 -999989.34075044817
 1665.8528068884079 1710.9523724751959 -999997.1487841378
 -2455.1293066335502 3546.0663429953993 -999990.69883353356
 -7859.1551862549695 5618.9162684513221 -999953.32964080211
 -13913.025794195652 7580.8662732656503 -999874.47121115983
 -18409.136434424665 8158.9293178599164 -999797.24722971953
 -0 -0 0
 0 0 -0
 41656.037091063481 7764.7343431132895 -999101.83839008573
 35634.381628003939 6208.163488533557 -999345.61066334276
 29151.873756647543 4192.4529549798408 -999566.2017068686
 23897.851230423013 2375.3823733539471 -999711.58354054752
 19945.091559616594 889.31899167645088 -999800.68135324342
 17029.705628787862 -289.60834028398477 -999854.9421057069
 14883.493916887712 -1217.481088306851 -999888.49345745833
 13298.45374193257 -1950.3974070227855 -999909.66945921106
 12125.37632390404 -2535.8398593484885 -999923.26943881623
 11259.99678494283 -3010.829436293086 -999932.0713821057
 10629.80253081824 -3402.4926949855221 -999937.71323098743
 10183.900705222259 -3729.5666066552571 -999941.18752022239
 9885.6978475381529 -4004.1587559176705 -999943.11822759453
 9707.6969525278037 -4233.4105074498366 -999943.91785507312
 9627.8235011091583 -4420.8696394205945 -999943.87888834183
 9626.8470263022282 -4567.5247953604548 -999943.22915532347
 9686.5870418131653 -4672.5063956459153 -999942.16718541458
 9788.6336574339093 -4733.5097729750487 -999940.88652097306
 9913.3336073824539 -4746.9675622753484 -999939.59423344745
 10038.784822974147 -4708.0039516340339 -999938.52685956133
 10139.583050101195 -4610.167922498058 -999937.96567951993
 10185.028373275953 -4444.9707420629466 -999938.2518096494
 10136.441173448164 -4201.2368893097437 -999939.79927240475
 9943.1255355930716 -3864.3092361174872 -999943.0990654974
 9536.4065061105193 -3415.1260903275615 -999948.6956162987
 8821.1279159399164 -2829.2395533022623 -999957.0906323134
 7664.3176241294886 -2075.9071423662926 -999968.47392549983
 5882.2042404638023 -1117.7645307659755 -999982.07497721037
 3231.8342153602748 87.109279349589229 -999994.77381613257
 -570.72750836533169 1573.8832338932289 -999998.59857985657
 -5736.9686005493249 3325.1093532515279 -999978.01517786644
 -12001.001251048494 5116.453104236527 -999914.89531689871
 -17433.779202500136 6250.1604389851764 -999828.48470985529
 0 0 0
 -0 -0 0
 39645.247129658273 5758.097652246377 -999197.22712358227
 33547.652603739014 4041.4196838932617 -999428.94791561726
 27337.663509430666 2282.4653903859344 -999623.65043329506
 22427.186111318646 821.10253381604855 -999748.1418406124
 18777.193722073403 -334.03804049452009 -999823.63715532923
 16104.674624964458 -1237.8237661715784 -999869.54511453537
 14146.857110572604 -1947.7201902944375 -999898.03121115966
 12706.025692404062 -2511.6846150526148 -999916.12065787718
 11643.240034928041 -2967.0441656066273 -999927.81319973711
 10863.258681114952 -3341.6209669297409 -999935.40950410394
 10301.035798780535 -3655.267405861855 -999940.26205652126
 9911.5690443088515 -3921.4093464686316 -999943.1900602238
 9662.70128828819 -4148.483419231442 -999944.7096160535
 9530.1371378165186 -4341.1861404617803 -999945.16379100911
 9494.0333764784991 -4501.5025823793185 -999944.79837876407
 9536.6988455460905 -4629.4916605940934 -999943.80801227724
 9641.054142263396 -4723.8517267639236 -999942.36598910519
 9789.5798672831934 -4782.2774609621938 -999940.6452126588
 9963.5025634102767 -4801.6408593530286 -999938.83456025762
 10141.98147549971 -4777.9964421597406 -999937.15350603359
 10301.03803043617 -4706.4282850311829 -999935.86701762676
 10411.942831816445 -4580.7255679321888 -999935.30210696056
 10438.704053142605 -4392.8926754830309 -999935.8659192262
 10334.215153502633 -4132.4588042846772 -999938.06147250556
 10034.51171123108 -3785.5564916369476 -999942.4874145342
 9450.5545332630227 -3333.6856047292072 -999949.78551890445
 8457.1947607723341 -2752.1115318953844 -999960.45008734963
 6880.1232232804596 -2007.9738382087464 -999974.31564290577
 4485.378331933337 -1058.9518033299862 -999989.37994475616
 987.43875359562799 144.02261202812704 -999999.50211097382
 -3872.3155559801971 1638.1869845254002 -999991.16071875289
 -9998.0741450950773 3378.9065640982758 -999944.30920117756
 -15715.673299582673 4989.4659053973392 -999864.05218045507
 -0 0 -0
 45322.015233984828 5178.8617478145125 -998959.00532811019
 39228.724086248119 3976.6345234474638 -999222.34441811393
 32058.198155045306 2236.0069084063512 -999483.50271735713
 25944.934723545299 767.18824334371322 -999663.07913436042
 21293.228408137653 -372.50239580513733 -999773.20411477517
 17878.606200836271 -1248.5300721539186 -999839.38540796365
 15391.973484921387 -1926.8237626002833 -999879.68001276418
 13575.842983761768 -2459.3433309929628 -999904.81952916912
 12242.341004466003 -2885.0046887488547 -999920.89778875827
 11261.521139279455 -3232.3802382343702 -999931.36257426429
 10545.476492572298 -3522.0152939020263 -999938.19225680851
 10034.92513137453 -3768.2034621861453 -999942.54880981799
 9689.267841805382 -3980.3848993270276 -999945.13580733154
 9479.6055718910229 -4164.2787109975579 -999946.3964938412
 9383.9620504554168 -4322.8191763676159 -999946.62582090055
 9384.0821471618983 -4456.9092026240196 -999946.03602525208
 9463.326785169711 -4566.0156665764935 -999944.79694985645
 9605.3176021915515 -4648.6070911534116 -999943.06254199927
 9793.0484315099729 -4702.4578681734019 -999940.98980510654
 10008.225534657047 -4724.816117568439 -999938.75389160833
 10230.597583615658 -4712.4523043227537 -999936.5618209797
 10437.032769572281 -4661.5741767099762 -999934.66690237424
 10600.058347829763 -4567.6123246822672 -999933.38562159927
 10685.528202331474 -4424.8424987320504 -999933.11789134098
 10648.995524944066 -4225.8196771242492 -999934.36851743737
 10430.28507240129 -3960.543240706771 -999937.75968834537
 9945.7163403227187 -3615.2680874443126 -999944.00471383077
 9077.6257071598575 -3170.8247094451199 -999953.77022249519
 7661.7424610783037 -2600.3860658169715 -999967.26731167012
 5475.9364299206763 -1866.865421462325 -999983.26432681538
 2242.5876977896528 -921.15071667454663 -999997.06113656878
 -2317.6136627181277 293.89693250065216 -999997.27114202827
 -8268.4134515233109 1809.4480696339053 -999964.17897676607
 -14808.191715337358 3432.7438139866922 -999884.46018929093
 -19559.755872413843 4074.5569583860338 -999800.3870452363
 44557.084658873275 2557.4746608542537 -999003.56632499595
 38028.04402720707 1690.4738665382727 -999275.24244602944
 30801.415924366611 517.07369356933316 -999525.39007863612
 24883.747072785489 -511.80248169428245 -999690.2206132845
 20445.333949848417 -1321.6701577118313 -999790.09872456419
 17207.567259879688 -1945.9990360829818 -999850.04511514027
 14857.045941951903 -2430.2391608731987 -999886.67464043119
 13143.496809981367 -2812.0858787522525 -999909.66625221528
 11887.422265758929 -3119.7746457687672 -999924.47524702351
 10965.974376272616 -3373.7451731313072 -999934.18045863684
 10296.808659970049 -3588.4478069331126 -999940.54761958565
 9824.88446305855 -3773.7631151694277 -999944.61364479479
 9512.7768934689448 -3936.065206226212 -999947.00582904264
 9333.8995853488086 -4079.0485597124771 -999948.11849484383
 9267.9016079470766 -4204.3836023104841 -999948.21323822066
 9297.6137083240392 -4312.2529695516041 -999947.47804755089
 9407.0829269795813 -4401.7767161471793 -999946.06412173354
 9580.3410259741813 -4471.3488126793136 -999944.11049099232
 9800.6354793171286 -4518.8782409580699 -999941.76194598689
 10049.878087082032 -4541.9495305262089 -999939.18347312347
 10308.086383322106 -4537.8884130309743 -999936.57345046883
 10552.572758793272 -4503.7397223332655 -999934.17760204792
 10756.614698842939 -4436.1316182501523 -999932.30569698394
 10887.278890353038 -4331.0177841760851 -999931.35236540961
 10902.005765631729 -4183.2470218087165 -999931.82103313447
 10743.470187940682 -3985.9203013493884 -999934.34298841481
 10332.193822827096 -3729.4512006824448 -999939.66666221851
 9556.5162911271982 -3400.2887551664053 -999948.55419304373
 8260.2572654525811 -2979.3461833415504 -999961.4450798732
 6230.7788900806363 -2440.6460941179448 -999977.61006987875
 3197.0653627087122 -1752.121391079648 -999993.35439976666
 -1133.5955216690254 -885.42432065030027 -999998.96549194783
 -6922.3553568791458 142.8248289016708 -999976.03001141048
 -13736.555307705907 1145.5827160035408 -999904.99283107836
 -19385.336876875219 1632.8987549273022 -999810.75327075087
 43759.717334967696 189.35744963125151 -999042.0668232746
 37086.101574232947 -292.22181315041342 -999312.03118767531
 29910.674916993623 -959.70549202287475 -999552.11494517815
 24141.849330314591 -1582.4285918064861 -999707.29067595792
 19851.637531711473 -2090.9596247657191 -999800.75033736473
 16734.435456044394 -2490.0443669563333 -999856.86893125752
 14476.02615979827 -2802.7771321758291 -999891.28864440473
 12831.769130340921 -3051.6784994165318 -999913.01269626548
 11628.214279897855 -3254.4892922378681 -999927.09380839719
 10747.514534301637 -3424.2285622112154 -999936.38077134115
 10111.165958782745 -3570.099353126288 -999942.50770409941
 9667.0082395554782 -3698.3386437385766 -999946.43418683799
 9379.741252872218 -3812.8826914320871 -999948.73987600498
 9224.3113588046199 -3915.8743318890984 -999949.78774345096
 9181.4277486686951 -4008.0739663281779 -999949.81710462656
 9234.6111275128696 -4089.1948690473282 -999948.99892076815
 9368.3131474011861 -4158.1905683685472 -999947.47070032114
 9566.7682944040789 -4213.4880486024067 -999945.36023868097
 9813.2989577724584 -4253.1801142775012 -999942.80317550234
 10089.841767983813 -4275.1616018795257 -999939.95724062086
 10376.463660209942 -4277.2173930771896 -999937.01522309938
 10650.637163118043 -4257.0406370376795 -999934.21860292112
 10886.006609131528 -4212.1826472295506 -999931.87386814109
 11050.336788630098 -4139.9025079479989 -999930.37320809613
 11102.255881084064 -4036.905767172103 -999930.21921841032
 10986.324831124793 -3898.9266469954778 -999932.04721006239
 10625.891028743104 -3720.1440546934746 -999936.62347573694
 9913.251787190773 -3492.4393323551317 -999944.76362772845
 8697.1558294719634 -3204.7091588066091 -999957.04373722244
 6769.4787992800657 -2842.9310292358682 -999973.04558670451
 3858.3237877452666 -2393.0633706418262 -999989.69323951181
 -349.63924763199333 -1851.8492203937144 -999998.22420185385
 -6088.7101044828769 -1254.6466154260602 -999980.676548869
 -13077.31015042846 -720.39316877949148 -999914.22881810809
 -19107.191984879271 -438.27266661320544 -999817.34488431574
 43206.830734436022 -1633.2105716370509 -999064.81391404965
 36503.270112893297 -1870.8083320065759 -999331.78241625545
 29373.771510866027 -2186.4997659952951 -999566.10625110776
 23691.522545808286 -2485.219801402704 -999716.22745757212
 19486.548558119543 -2733.4341508988555 -999806.38263767608
 16438.747122077632 -2931.0028752441735 -999860.57868844981
 14233.422085735068 -3087.9952993213378 -999893.93136510253
 12629.372801009189 -3215.023674224527 -999915.07767681312
 11456.80074789068 -3320.6800932585979 -999928.8548693558
 10600.812862373561 -3411.369411419972 -999937.99074012379
 9985.1310413681731 -3491.6634795665846 -999944.0511569794
 9559.2389230698245 -3564.6590094076755 -999947.9557243759
 9289.040190700829 -3632.2454079469412 -999950.2590257338
 9150.3403026378201 -3695.315800236669 -999951.30677122599
 9124.434154877621 -3753.939697651088 -999951.32513442857
 9195.2038368336671 -3807.5269081979741 -999950.47425622179
 9347.2856861378878 -3854.9775725275813 -999948.88239260332
 9564.9612584051956 -3894.8313105532025 -999946.6694805217
 9831.506835889777 -3925.3993777424134 -999943.96478655795
 10128.760203611051 -3944.8873462089496 -999940.92129513505
 10436.686004237703 -3951.4877428358586 -999937.72872607806
 10732.701917044893 -3943.4476377940668 -999934.62702833104
 10990.510947399835 -3919.087112301961 -999931.92239538033
 11178.127482272448 -3876.7712253709838 -999930.00760596059
 11254.721252730451 -3814.8080394865142 -999929.386751457
 11165.802597721238 -3731.2764124356327 -999930.6988130142
 10836.189230504087 -3623.7673149609768 -999934.72052599897
 10160.188458175564 -3489.0910737341496 -999942.29674215394
 8988.7785970021996 -3323.0813575008829 -999954.078440418
 7115.007867284151 -3120.9420129148471 -999969.81773651578
 4263.5919143912333 -2879.1650611008622 -999986.76600870001
 105.89543017719839 -2600.9883714094767 -999996.61181708495
 -5628.3724111058054 -2307.068048143884 -999981.49925937271
 -12700.631299227771 -2046.1466833733202 -999917.25020041107
 -18861.909674494098 -1883.3920387757494 -999820.32445727952
 42946.383302793605 -3182.7032293581201 -999072.30897536327
 36253.861371009581 -3242.2072682977378 -999337.3532635119