# OOMMF OVF 2.0
#
# Segment count: 1
#
# Begin: Segment
# Begin: Header
#
# Title: Oxs_TimeDriver::Magnetization
# Desc: Oxs vector field output
# Desc:  MIF source file: /mnt/gpfs/work/plgrid/groups/plggspinsym/MF/switching-obrazki/p-ap/Anisotropy.mif
# Desc:  Iteration: 48600, State id: 340350
# Desc:  Stage: 0, Stage iteration: 48600
# Desc:  Stage simulation time: 7.15422e-09 s
# Desc:  Total simulation time: 7.15422e-09 s
# meshunit: m
# meshtype: rectangular
# xbase: 1.0000000000000001e-09
# ybase: 1.0000000000000001e-09
# zbase: 3.4999999999999998e-10
# xnodes: 35
# ynodes: 35
# znodes: 5
# xstepsize: 2.0000000000000001e-09
# ystepsize: 2.0000000000000001e-09
# zstepsize: 6.9999999999999996e-10
# xmin: 0
# ymin: 0
# zmin: 0
# xmax: 7.0000000000000005e-08
# ymax: 7.0000000000000005e-08
# zmax: 3.4999999999999999e-09
# valuedim: 3
# valuelabels: Magnetization_x Magnetization_y Magnetization_z
# valueunits: A/m A/m A/m
#
# End: Header
#
# Begin: Data Text
 -0 0 -0
 0 0 -0
 -0 -0 0
 -0 0 0
 0 0 0
 -0 0 -0
 0 0 0
 0 -0 0
 -0 0 0
 0 0 0
 0 0 0
 -0 -0 0
 0 0 0
 23018.457557416728 34761.620176900971 -999130.51218264503
 20607.02207380546 34411.090845805345 -999195.28995489713
 18342.10676090276 34012.302582535274 -999253.08625623246
 16613.680043425917 33754.012154679207 -999292.07557093946
 15162.44252838453 33674.640033857366 -999317.82679744263
 13653.704570659816 33780.227363193335 -999336.01585792378
 11745.679047095893 34073.975285645683 -999350.29055479646
 9162.4509689777642 34521.32368053207 -999361.96030446584
 6297.4548299705903 34919.741196161442 -999370.27859420422
 0 0 0
 -0 0 -0
 -0 0 -0
 -0 0 0
 0 -0 0
 -0 0 0
 -0 -0 0
 0 0 0
 0 -0 0
 0 -0 -0
 0 -0 0
 -0 -0 0
 0 0 -0
 -0 -0 -0
 -0 -0 -0
 -0 -0 -0
 -0 0 -0
 0 0 -0
 0 0 -0
 -0 -0 0
 0 0 0
 0 0 -0
 0 0 0
 27713.707440982249 32847.98360250477 -999076.0533578638
 25708.202213010321 31697.373227728727 -999166.83535305434
 24192.19257045925 29969.869852997024 -999257.99707564444
 22539.479794585208 29386.924181404265 -999313.95493996062
 20266.980984115125 28334.554747229926 -999393.01703036996
 18273.340765439254 27639.125577446757 -999450.93113898509
 16717.865863988165 27280.451935412442 -999488.01388668665
 15389.173650368302 27184.861364022494 -999511.95923159295
 14014.347151682581 27332.184922501368 -999528.16355582222
 12321.55686616867 27760.343612849614 -999538.66486439132
 10114.205238711224 28560.415995406984 -999540.89735766128
 7627.7288339697661 29754.054393608487 -999528.14567673777
 6003.0614816306052 30416.886729233407 -999519.27257784724
 4125.3323362854544 32045.818061320286 -999477.88728810602
 1549.5487837678108 33127.516418162129 -999449.93198985769
 -0 0 -0
 0 -0 0
 -0 0 -0
 0 -0 -0
 -0 0 0
 -0 0 0
 -0 0 -0
 -0 0 0
 -0 0 -0
 -0 0 0
 0 -0 -0
 -0 0 -0
 -0 0 0
 -0 0 0
 -0 -0 0
 0 0 -0
 0 -0 -0
 -0 -0 0
 32479.23105891317 30476.354051711522 -999007.65332080238
 30011.297565137666 29017.424084240381 -999128.27560727764
 27284.524550371378 27891.819931006503 -999238.51061745826
 24722.573482858785 25961.46325346507 -999357.19179186539
 22808.170941908302 24028.900158030967 -999451.04897412565
 21128.209318690315 22505.142638269539 -999523.44511062698
 19408.279830534128 21283.917712510061 -999585.07067724213
 17895.261653871759 20517.838399919681 -999629.32025713113
 16649.66549027546 20129.814214400834 -999658.73137724132
 15549.751158520974 20033.973199622524 -999678.3708557192
 14418.172577442978 20204.592826109463 -999691.89790067764
 13082.248853777382 20681.571679345529 -999700.51883441571
 11438.819340060629 21558.27829777588 -999702.15266795398
 9585.9928410465745 22894.163688090644 -999691.93555328553
 7785.834942770638 24478.682088471814 -999670.03300962038
 5587.6082043104743 26411.933062430191 -999635.52779323561
 2634.1613436944963 28376.59393814455 -999593.83256925177
 -380.29523211274267 29507.745639617475 -999564.47932227189
 -3456.7610295725499 30837.6591832009 -999518.4288342488
 -0 0 -0
 -0 -0 -0
 0 0 -0
 -0 0 0
 -0 0 -0
 0 0 -0
 0 -0 -0
 -0 -0 -0
 -0 -0 0
 0 0 0
 0 0 0
 0 0 -0
 -0 0 0
 0 0 0
 -0 -0 -0
 35005.16384963593 27040.042083301243 -999021.25834638439
 31880.048346864427 26047.874947399763 -999152.22600368876
 28397.862867267308 23776.5120699861 -999313.88405163144
 25450.424177081211 21584.730945138679 -999443.03254324244
 23070.817679903426 19540.489162327911 -999542.84883384441
 21268.544040868328 17803.409747123223 -999615.26980921905
 19817.207906779135 16430.975039145815 -999668.59575063305
 18540.228076714477 15409.315202758864 -999709.36423935019
 17440.613040378397 14753.621571997426 -999739.04378456995
 16505.138193807445 14413.397106060727 -999759.88837173616
 15656.46241260946 14334.447714810178 -999774.67401081626
 14786.620637243281 14498.662404188301 -999785.54932476371
 13791.121256260891 14931.273105294993 -999793.40968919685
 12602.569241680025 15687.21639248491 -999797.52274666296
 11217.69654073213 16804.31262696275 -999795.86834586179
 9627.4778956428181 18246.845989529524 -999787.15948986018
 7603.8072098561961 20033.920076108854 -999770.38571979094
 4928.7380204459023 22132.940070887867 -999742.88719917589
 1630.5743822867512 24360.860951447899 -999701.90040876088
 -2349.0830504219616 26652.736811870109 -999641.99262999126
 -5925.6777428430805 27671.978238798467 -999599.49377920304
 -0 -0 -0
 0 -0 0
 -0 0 -0
 -0 -0 -0
 0 -0 -0
 0 -0 -0
 0 0 -0
 0 -0 -0
 -0 0 -0
 0 0 -0
 -0 0 0
 -0 0 0
 -0 0 -0
 36379.26270387377 25024.609609744326 -999024.68345832301
 33461.964445676291 23352.109470244584 -999167.14113241655
 29607.520406075462 20757.435305170464 -999346.04798085615
 26171.142647197332 18207.098166524684 -999491.6572282603
 23489.851643173435 16059.359417870255 -999595.07994230825
 21462.691712905431 14295.955955248755 -999667.43395379349
 19949.521977030552 12891.881825210139 -999717.86817876424
 18782.340670732159 11815.068836013121 -999753.78360240709
 17831.226333118193 11034.022014435172 -999780.12469024514
 17036.911221426832 10527.606928702166 -999799.43646132748
 16355.413441772014 10261.811569419993 -999813.58046110906
 15728.203251637789 10205.624261073095 -999824.21897847462
 15085.661657171277 10348.083854381694 -999832.65598444419
 14359.762674533438 10702.685395939347 -999839.61200846964
 13495.473244752204 11299.509515125526 -999845.08464392531
 12449.482510344675 12166.625611923238 -999848.48032411584
 11153.165164073056 13319.091012446213 -999849.09297424729
 9458.1053788484569 14792.056465558961 -999845.85777416837
 7190.3698340135907 16626.260425904336 -999835.9195617548
 4202.7545606080785 18846.036940689944 -999813.56449376792
 374.34598636716174 21473.930604988753 -999769.33848235942
 -3917.7535968023658 24141.595714869796 -999700.87254292949
 -7259.2485718338576 25804.215998716172 -999640.65831020684
 0 -0 -0
 -0 0 -0
 0 0 0
 0 0 -0
 0 -0 0
 -0 0 0
 -0 0 0
 0 -0 0
 -0 -0 -0
 -0 -0 -0
 0 0 0
 37374.707705579218 23915.850994434433 -999015.09663024347
 34527.833436144494 21850.258967756028 -999164.84871178679
 30646.045604328836 18842.820029628685 -999352.67449592019
 26979.054064518001 16005.681172646911 -999507.85330180544
 24009.193248480889 13666.846196464057 -999618.31513563183
 21767.23602281501 11833.382736501722 -999693.03212983254
 20116.125785921737 10412.454425925684 -999743.42822355824
 18904.53300129588 9324.7535365633776 -999777.8091173484
 17996.827498576335 8512.1065317017346 -999801.80948144908
 17289.869251931777 7933.196525463055 -999819.04603490117
 16717.017229168741 7558.8646004921866 -999831.68828603905
 16228.78618757772 7363.5390149389577 -999841.18978568458
 15777.479477738818 7328.1445087233024 -999848.67326980457
 15313.700686949307 7445.8849078220501 -999855.01417416008
 14788.558139038723 7724.0842482400667 -999860.80884825881
 14155.066502231748 8180.9598175289284 -999866.34406243591
 13362.45541131868 8839.803258234022 -999871.6430941202
 12338.702892241436 9728.4529188321558 -999876.54918731982
 10972.436721852511 10890.77574949462 -999880.4911768001
 9121.8730211181828 12389.784675152034 -999881.63532904733
 6629.1802638782965 14308.085829193278 -999875.65859407396
 3350.4403720391633 16739.571594095469 -999854.27002746752
 -678.87535876537447 19663.790126700256 -999806.41850615281
 -4974.8138588877273 22712.613383914762 -999729.65766768286
 -8246.4295121577907 24713.291733798498 -999660.56719867734
 0 -0 0
 0 0 0
 0 -0 -0
 0 -0 0
 0 -0 -0
 -0 -0 0
 0 -0 -0
 0 -0 0
 0 0 -0
 38544.740767664574 23080.848791882388 -998990.27892077097
 35552.917061062166 20922.63010463012 -999148.75450953434
 31555.844824518579 17735.942450697115 -999344.61773844401
 27754.607610739073 14687.495681862256 -999506.85801897815
 24599.532732272142 12176.046873515257 -999623.23245905386
 22163.578845439482 10228.045458210827 -999702.03703847015
 20359.290913728582 8753.2876287086583 -999754.40945723222
 19049.22009656006 7644.9309703857389 -999789.31892882835
 18102.084833809527 6818.3513425662213 -999812.89480064169
 17408.846832521711 6213.6219483937575 -999829.14688172797
 16886.502977159595 5789.7128551777578 -999840.64992490539
 16475.485732672209 5518.5009768439268 -999849.04086408997
 16130.510551647916 5379.7506912544704 -999855.42200452334
 15812.167885264624 5360.4066807962708 -999860.61097884295
 15482.715513460402 5455.8992640039878 -999865.25026302936
 15104.504101159189 5670.6779605369829 -999869.84021287796
 14638.036041005751 6017.2658634135796 -999874.75236271019
 14036.898108746771 6515.1670031525082 -999880.251875396
 13238.752552224982 7192.5870274134113 -999886.49461962143
 12156.721607963043 8092.3559094363709 -999893.35826156056
 10678.035807849932 9277.3155960680106 -999899.95047835528
 8667.4993826241935 10834.386602006341 -999903.74062777171
 5983.4274505956746 12869.67996681052 -999899.2798944778
 2534.2173016318625 15463.851187471762 -999877.21598660317
 -1616.5391603264593 18566.628194567464 -999826.31847667787
 -6028.4582085480042 21745.05171727838 -999745.37279121263
 -9461.9777833077114 23783.55638667331 -999672.35303474835
 0 -0 0
 0 -0 0
 0 0 -0
 0 0 -0
 0 0 -0
 0 -0 0
 -0 0 -0
 40482.728707206064 21944.977808244657 -998939.22068633116
 37038.962037793455 20031.080391991574 -999113.04220768344
 32692.051978232412 16935.313314379899 -999321.98259639833
 28630.765304790351 13861.814716204319 -999493.93663535325
 25267.46755091564 11269.609706317928 -999617.20222324622
 22647.553052138559 9236.534686360128 -999700.84263630502
 20684.877015016427 7697.4608868777977 -999756.41281202517
 19253.506351943994 6551.5165026886016 -999793.1686727365
 18226.852854814977 5704.5925984584746 -999817.60309483169
 17495.503743125806 5083.7066183923871 -999834.01786286116
 16971.842146171279 4636.8191904624355 -999845.21626197745
 16588.989399527592 4328.2025642026883 -999853.02524584357
 16296.994820104001 4133.7034546596506 -999858.65023791359
 16057.219040334387 4037.1937988553063 -999862.92399654514
 15837.102828443105 4029.0680887901281 -999866.46747670125
 15606.559551634717 4106.0337672873266 -999869.77941413119
 15335.506492759821 4271.1369775704707 -999873.28178601188
 14991.256457166201 4533.6768401821892 -999877.34648012905
 14534.602911691427 4909.589777621798 -999882.31369817455
 13914.415244410049 5423.3553797454542 -999888.4819142737
 13062.191600502108 6111.7933715529143 -999896.00715893204
 11888.522458887335 7028.4240425258922 -999904.62759666366
 10281.778782073181 8247.0467040942276 -999913.13184983085
 8112.0277871885373 9860.174895000835 -999918.48265557119
 5247.4048466881368 11961.925377411988 -999914.68490248709
 1590.3388048806205 14602.987713955285 -999892.10596559441
 -2830.7387338829085 17682.522042902176 -999839.64480931789
 -7617.4987405031088 20711.659371939266 -999756.47078626067
 -11542.908159775772 22443.836794020717 -999681.46699895291
 0 0 0
 0 0 0
 -0 0 0
 0 -0 0
 -0 0 -0
 43698.677377824082 19675.079611050372 -998850.99831642956
 39572.278229072588 18647.524733051501 -999042.69409124402
 34519.803871227821 16037.169534421924 -999275.33359630976
 29920.430520999082 13176.060308540122 -999465.43675716186
 26177.727363843595 10648.301192396506 -999600.5903718645
 23287.766275018577 8608.7877929181977 -999691.73684424197
 21124.782749533948 7038.7958867228699 -999752.06871816481
 19542.796796462684 5861.4667538568774 -999791.83948503295
 18407.267480519273 4991.3630777609405 -999818.11285779707
 17604.203087692316 4354.0739082103137 -999835.55351570167
 17041.837800018173 3892.0327754966293 -999847.2022490598
 16648.789005279261 3563.6130763379329 -999855.04873781558
 16370.713087179509 3339.8953759593942 -999860.41268363816
 16166.367330778694 3201.3380455364018 -999864.19077895
 16003.49047727869 3135.2434222363477 -999867.02042883041
 15855.124384794621 3134.3227886177133 -999869.38699582114
 15696.708524980213 3196.1181719329966 -999871.69085343776
 15503.708674585125 3322.8637616663309 -999874.28889523633
 15249.193535696586 3521.6540059027993 -999877.52252442087
 14900.82508179953 3805.1225061635523 -999881.73623413825
 14417.110566813857 4193.0166909643685 -999887.27641366317
 13743.28546544963 4714.7477070199639 -999894.44105799205
 12807.301171197143 5412.4270126782631 -999903.33466317784
 11516.069754808754 6343.4291873429202 -999913.56678642379
 9752.6967882160243 7580.2437356820528 -999923.70949501172
 7376.529904691839 9203.2735475866375 -999930.44086205005
 4229.9807839905197 11279.859240264672 -999927.43338608684
 168.70404774244261 13813.428243646946 -999904.57581666345
 -4834.8269135825949 16626.120182338698 -999850.08705125307
 -10393.328100436682 19103.945238285949 -999763.48103305395
 -15078.86509282955 19878.375018786614 -999688.6905602786
 0 0 0
 -0 -0 -0
 0 -0 -0
 0 0 -0
 42354.232523911727 16765.128494427299 -998961.98599039589
 37358.843805988516 14890.411402241027 -999190.96895325847
 32004.147903380901 12433.658455532193 -999410.39551046793
 27607.441792831123 10105.243717059535 -999567.76318920671
 24253.659353596875 8149.5062572793968 -999672.61918876332
 21772.718872482361 6603.0702395240914 -999741.14058405755
 19970.654990673946 5422.3916408706764 -999785.86237660737
 18681.092212703017 4540.3552464117165 -999815.18390549417
 17771.539232673455 3890.6324481687498 -999834.50399176287
 17139.247720828022 3417.1332981246996 -999847.27303102997
 16705.666039138181 3076.3796886277132 -999855.71789643762
 16411.295977434918 2836.5279257277716 -999861.30211828265
 16211.210008455708 2675.1663452413118 -999865.0109665239
 16071.159342592349 2577.0669660184576 -999867.52950740326
 15964.193175277042 2532.4045462090585 -999869.35719796747
 15867.808901144608 2535.6245430385529 -999870.88328886405
 15761.609493530535 2584.8682884994546 -999872.4369248834
 15625.263300005625 2681.8166702287381 -999874.32160554687
 15436.446975701865 2831.8770885795475 -999876.84070435481
 15168.455918844928 3044.8013598480752 -999880.31640277663
 14787.302671799494 3335.8468819183299 -999885.09730132122
 14248.248489284892 3727.5008211174904 -999891.54069459753
 13491.696830117382 4251.5119811724544 -999899.94437569508
 12438.201865172512 4950.6864148349077 -999910.38690393814
 10982.366927504459 5879.2914047160493 -999922.40776434657
 8985.7428583097935 7100.0212972159179 -999934.42091112328
 6270.5665894536596 8673.9469537869718 -999942.71967892745
 2623.9175336404628 10635.723241449308 -999939.99642373947
 -2151.3511635188638 12937.083328356921 -999913.99808339821
 -7998.3964897137103 15322.98691697737 -999850.60470329062
 -13588.084758044661 17096.928977733824 -999761.50104519352
 -0 0 -0
 -0 -0 -0
 0 0 -0
 46152.301240541958 14717.937988413654 -998825.98453963525
 41368.288257369612 13836.434559803551 -999048.15589906753
 35244.292238073067 11726.731981710862 -999309.92370818916
 29891.688380174077 9595.1478170237915 -999507.08857123775
 25791.154349728266 7758.1190762062415 -999637.24817841197
 22790.427662615471 6274.2236309762429 -999720.57622356853
 20637.533591053965 5120.3282017476513 -999773.91166522482
 19111.420291160619 4245.51722362698 -999808.34623339598
 18041.478092025423 3594.0161189656287 -999830.77974044788
 17300.901436225056 3115.2530462063623 -999845.47506499838
 16796.313512948051 2767.5732151592206 -999855.10169767763
 16458.932155399852 2518.7632018950953 -999861.37008299143
 16237.870151861434 2345.0383312706444 -999865.40712645708
 16095.131101980875 2229.4890262889016 -999867.97935202019
 16001.805711916586 2160.5417806321016 -999869.62863824004
 15935.100547781796 2130.7280216521003 -999870.75793255877
 15875.974309438056 2135.8425533808586 -999871.68757611746
 15807.197359990376 2174.4863699000753 -999872.69395691063
 15711.636415074639 2247.9225548071672 -999874.03772942722
 15570.526632630403 2360.2326056379552 -999875.98631151742
 15361.502071334771 2518.7820585619597 -999878.83265476406
 15056.168180032153 2735.048960981544 -999882.90879828297
 14617.005185169101 3025.790849211769 -999888.58766822296
 13993.292961216752 3414.4416491410611 -999896.25928909576
 13115.585818932384 3932.4455998278427 -999906.25424598239
 11888.108628339205 4620.0062034074808 -999918.66089993611
 10178.538952292165 5525.3288730910808 -999932.93179374828
 7805.788853843289 6700.8051371348693 -999947.08303533914
 4531.545819149198 8193.0730241819274 -999956.16836284858
 79.889166893862068 10020.443208578336 -999949.7909073357
 -5723.5745897240486 12118.554875051139 -999910.18662760709
 -12386.715300204411 14153.890941803225 -999823.10268130875
 -17695.701326105496 14824.309877760552 -999733.51548861549
 -0 -0 0
 0 0 -0
 45022.245307185804 12295.570041483834 -998910.31448516657
 39478.889601176474 11014.382886448919 -999159.69726840395
 33250.743758211145 9157.0965092605384 -999405.09085307654
 28161.296604520619 7426.3422807185025 -999575.80543642701
 24387.476506272535 6003.2516641122229 -999684.55622716958
 21691.326108238904 4886.9445240906989 -999752.7715114794
 19797.019153407095 4033.2014853270321 -999795.88482770743
 18479.788497519028 3391.6525970477783 -999823.48147547909
 17573.103354970386 2916.1763019479549 -999841.32838878571
 16957.251031623131 2567.9669897404051 -999852.91777490464
 16546.67011702932 2316.0539739961509 -999860.41205861699
 16279.90811937599 2136.7129009718819 -999865.19043799257
 16112.350463321258 2012.403186423074 -999868.16250741901
 16011.069592297499 1930.5783015243444 -999869.95080256939
 15951.13727567889 1882.6048788138937 -999871.00018876547
 15912.918795546773 1862.8945776423031 -999871.6460822355
 15880.011337460455 1868.3061406425363 -999872.15916440391
 15837.587706175393 1897.7960877674382 -999872.77649991994
 15770.931554445873 1952.3105862070533 -999873.72512796847
 15663.966376964076 2034.8904195247678 -999875.24190687004
 15497.566255738901 2151.0112656843753 -999877.59180345852
 15247.428483496304 2309.1580644561564 -999881.08478642278
 14881.224509421376 2521.6435544668839 -999886.08874755539
 14354.641478617265 2805.6105960128129 -999893.03068738512
 13605.741396910991 3184.1256916692159 -999902.36780628748
 12546.895418375554 3687.1638081361502 -999914.4864629237
 11053.556574307491 4352.1883957404762 -999929.43618198694
 8950.0443865520483 5223.7334114896348 -999946.30321568996
 5996.5415161182746 6350.4528635258839 -999961.85589165031
 1895.8574456292326 7774.2327294087172 -999967.98300246347
 -3613.7950500513102 9489.6547923282742 -999948.44213952299
 -10368.506372542339 11296.145655765553 -999882.43867413036
 -16511.335978427669 12472.102142079317 -999785.8883042736
 0 0 0
 -0 -0 0
 43432.815895792781 10409.940691726952 -999002.11393077485
 37638.181761740147 8850.000970432342 -999252.24280783744
 31573.513805751623 7184.774876892573 -999475.60862480593
 26793.078449505814 5786.3037382551056 -999624.25422568037
 23319.063161816328 4692.0482718081839 -999717.06296145124
 20874.723785476464 3858.8782032311228 -999774.65209210664
 19181.803596318092 3233.4683209423602 -999810.7836452903
 18021.668512796932 2768.9446740604135 -999833.76238723169
 17235.36999062372 2427.2498832577489 -999848.51376560552
 16710.49405877075 2178.4116874828592 -999857.99687297188
 16368.0139286842 1999.3290605887717 -999864.03615858615
 16152.0723804955 1872.5868763979665 -999867.7932487902
 16022.673963340503 1785.3646602549136 -999870.03475056414
 15950.596397881201 1728.4832981781014 -999871.28712651797
 15913.848634772632 1695.6048984480819 -999871.92897173495
 15895.153647699834 1682.6218872976103 -999872.24827679887
 15880.09348729974 1687.2241761185264 -999872.47982200899
 15855.645688198225 1708.6523465113726 -999872.83141756023
 15808.904827823229 1747.6082085541045 -999873.50419625302
 15725.792789140485 1806.3326835963014 -999874.71045295929
 15589.567231833333 1888.8377258871187 -999876.69124025956
 15378.895469049812 2001.3168631991055 -999879.7349206378
 15065.203274460693 2152.7257121480761 -999884.19600587129
 14608.879232906314 2355.5471781872898 -999890.51002849778
 13953.759897689037 2626.7221378134977 -999899.19137657492
 13019.141971752459 2988.7565355558277 -999910.7806582998
 11688.57674728528 3470.9958404317249 -999925.66191767412
 9795.41017419944 4111.0116957086384 -999943.57316918508
 7108.1514318829977 4955.512466703156 -999962.45783499978
 3329.4085704927897 6057.8633555045581 -999976.10837966355
 -1842.2511504349743 7460.5687634766027 -999970.47257627791
 -8406.8486252480561 9124.1494136315723 -999923.03443498572
 -14789.118345869216 10677.627938038266 -999833.62127914501
 -0 0 -0
 48331.608034338722 9797.8184458515771 -998783.28901644982
 43022.942006110548 8758.8168841526513 -999035.68984692858
 36222.689997029818 7063.6180188059643 -999318.77898389532
 30262.673489293455 5617.9070114151828 -999526.19261032448
 25750.403541785217 4513.971559991237 -999658.2119795701
 22524.796321221002 3691.2127898531758 -999739.4703115545
 20279.708965930102 3082.8193121143627 -999789.5926790525
 18740.249061504113 2634.9780672352963 -999820.91394194087
 17696.494778607914 2306.8994958414114 -999840.74346231087
 16997.615673773798 2068.0399719757261 -999853.39138899825
 16537.857502987328 1895.543227686733 -999861.44349358871
 16243.541983796913 1772.3474626654397 -999866.49415224022
 16063.094794142193 1685.8142776828465 -999869.55900050083
 15959.931747348453 1626.717285198715 -999871.30890404806
 15907.53462143001 1588.4626340684399 -999872.20539863396
 15886.058035250471 1566.4992486026058 -999872.58150236565
 15879.962972444071 1557.8743499160687 -999872.69179806288
 15876.302383457223 1560.9345562170201 -999872.74515607255
 15863.395395103085 1575.1430576277917 -999872.92773176276
 15829.67502817841 1601.0210248677772 -999873.42104897462
 15762.530583955364 1640.1921770739095 -999874.4183142262
 15646.94993230261 1695.5502015538575 -999876.14136318385
 15463.744116343014 1771.5411028232916 -999878.85979253775
 15187.054691404743 1874.5910891161966 -999882.91278431623
 14780.74285478827 2013.6874288525205 -999888.73116142256
 14193.096172474683 2201.1676347956104 -999896.85012109263
 13349.147284563791 2453.778048434634 -999907.88537748018
 12139.875769095137 2794.1422968797065 -999922.40508208203
 10408.124716334392 3252.7968680816521 -999940.54335866612
 7933.3755776285852 3870.869894054817 -999961.03820009273
 4425.1169550880686 4702.7628599986083 -999979.15096336696
 -441.79572842766703 5815.2454718856789 -999982.99372371146
 -6840.98210906032 7263.9657484756854 -999950.21664350294
 -14142.867470534744 8925.7503810579456 -999860.14536026295
 -19919.563087626666 9755.7129106774082 -999753.98827511701
 47895.48638965805 7124.9312752808155 -998826.94083500793
 41935.542491634325 6394.1711897237628 -999099.85729692143
 35016.643060180671 5263.0519542553493 -999372.87085097656
 29264.713612171188 4251.1458679733851 -999562.65651334054
 24987.61409283413 3471.1098915115695 -999681.7346226091
 21957.498685818151 2895.3092657061784 -999754.71263491339
 19862.613871203463 2475.8719074731976 -999799.65324483952
 18435.579462188776 2171.8541442495448 -999827.69138460536
 17475.129420888312 1952.319615254785 -999845.39219813526
 16837.5915997671 1794.5804232642436 -999856.62721723435
 16422.701767265309 1682.0635223855395 -999863.72347883985
 16160.954145750593 1602.6433762248828 -999868.11885133514
 16003.973280086202 1547.4663820868002 -999870.73073825217
 15917.656017335732 1510.118276188575 -999872.16571405053
 15877.425478950207 1486.0350378947257 -999872.84144536417
 15864.978226723177 1472.0687625697353 -999873.05968278996
 15866.029704038432 1466.1844305334678 -999873.05164438055
 15868.703585210884 1467.2471087555041 -999873.00765269517
 15862.295279982342 1474.9038408887179 -999873.09807150555
 15836.210279209947 1489.5347448378648 -999873.4898627107
 15778.891986685399 1512.2886899239447 -999874.36188282713
 15676.56200310014 1545.1886244835009 -999875.92120016483
 15511.549631467073 1591.3324429859442 -999878.42235398106
 15259.931681837983 1655.1888041047064 -999882.19047800242
 14888.085387291327 1743.0320778130404 -999887.64706474729
 14347.628485044108 1863.5490994681577 -999895.3308929936
 13568.066336471888 2028.7100368503357 -999905.89152753539
 12446.448310583331 2254.9995550404142 -999919.99725050945
 10833.755464844962 2565.116876396823 -999938.02303839719
 8519.6156283307246 2990.0012098887605 -999959.23719035182
 5222.9938741943852 3570.0165134103581 -999979.98745829111
 614.76198105787398 4349.9792532349402 -999990.34982753859
 -5548.9677717675349 5346.8074484832823 -999970.30986263615
 -12963.958485389181 6421.1419046195997 -999895.3468823774
 -19476.364206759634 7036.6156205064963 -999785.55564575701
 47418.865306067499 4585.6764810790874 -998864.56678785814
 41170.666861883685 4231.3791215297979 -999143.16873052681
 34219.62696226417 3637.7652880922765 -999407.71649726224
 28602.116276780471 3056.0609276301898 -999586.20410452643
 24482.733991985864 2585.6035294614121 -999696.90926333598
 21586.12665759672 2233.2660113420166 -999764.49809884978
 19593.737953301457 1977.6627264751428 -999806.06833683385
 18242.579952188142 1794.863387219749 -999831.9792555694
 17337.419628201558 1665.2205348658174 -999848.30895551667
 16739.760934041075 1573.9683234547563 -999858.64152268425
 16353.315752583891 1510.3020843283703 -999865.13493146177
 16111.554117848935 1466.3690862393055 -999869.12522870244
 15968.341284272568 1436.4729318838229 -999871.46605058468
 15891.285881729569 1416.5103171310029 -999872.72216594964
 15857.145062376107 1403.5674588073139 -999873.28244576044
 15848.676040446693 1395.6427935968625 -999873.42781421961
 15852.466357858773 1391.4456287852017 -999873.37357759196
 15857.387844220242 1390.2691454749065 -999873.29717442766
 15853.422612248578 1391.9084448958376 -999873.35777205217
 15830.654312907356 1396.6363857063382 -999873.71192107641
 15778.255956677573 1405.2172852095907 -999874.52813007857
 15683.289556767877 1418.9789754595863 -999876.00277601718
 15529.1129002548 1439.9323339600501 -999878.3792278961
 15293.11077772013 1470.9685919551307 -999881.97154171241
 14943.379214822689 1516.140187379355 -999887.19200546539
 14433.843393118181 1581.076056263084 -999894.57662465947
 13697.157019271692 1673.5644835579496 -999904.78900318756
 12634.656039014562 1804.3578428070753 -999918.55156285141
 11102.943404464948 1988.1319164293648 -999936.38396612043
 8898.1010388779068 2244.1709505823815 -999957.89286081749
 5743.3124927838035 2595.0957789737545 -999980.13972253876
 1300.2785328309592 3058.5648648024885 -999994.47721310169
 -4730.0924938628505 3619.6026170155942 -999982.26219363208
 -12199.316413381262 4168.8569326459028 -999916.89520225709
 -19034.886573048123 4466.1897015900176 -999808.84485120478
 47132.068668676322 2620.0889982341246 -998885.23026254238
 40776.261160408365 2495.9828788389141 -999165.18483944738
 33805.276911045206 2262.5394900468013 -999425.87727556028
 28247.518088403365 2016.3912134244151 -999598.92551378824
 24209.911940478923 1809.7204417252151 -999705.25910177978
 21387.210598313988 1653.9997761668978 -999769.89928061154
 19452.855960828449 1543.0233080799028 -999809.58460800827
 18144.580180558085 1466.4609812635927 -999834.29812257481
 17270.102346419313 1414.8909846524634 -999849.85955314583
 16693.856076871522 1380.9356308109725 -999859.69425018248
 16321.912153756844 1359.1153232451034 -999865.86499849206
 16089.534344154898 1345.425605631036 -999869.64986168453
 15951.942048497804 1336.9597158260733 -999871.86583261739
 15877.783922444585 1331.6191971102135 -999873.05332628393
 15844.632883505335 1327.9164411298543 -999873.58413287043
 15835.906521607161 1324.829605917213 -999873.72647307522
 15838.742945013018 1321.710158326935 -999873.68567443534
 15842.495869079823 1318.2137588934877 -999873.630833979
 15837.589873048522 1314.266835436752 -999873.71375074086
 15814.545023917912 1310.0470790253 -999874.08404375473
 15762.992328499446 1305.9958631533102 -999874.90339924896
 15670.511453798046 1302.8455698187436 -999876.3611888208
 15521.077148168493 1301.6838109902624 -999878.69353407912
 15292.850441510771 1304.0443167822013 -999882.20715932036
 14954.938449896385 1312.0532862793887 -999887.30781630252
 14462.624253064425 1328.6326282173161 -999894.52805536136
 13750.401906658737 1357.7940409228711 -999904.53686476883
 12722.059857329043 1405.0096515881439 -999918.08421533485
 11237.21098837982 1477.5826078829095 -999935.76885659993
 9094.7674216043542 1584.6324591007526 -999957.38616478874
 6017.8431257276361 1735.5938413856863 -999980.38644672011
 1657.9280504077917 1934.6199640735415 -999996.75425481983
 -4317.7380962724328 2166.9200407372523 -999988.3307295487
 -11819.816044477029 2378.5081936382871 -999927.31468214607
 -18774.391249614357 2481.0114026765077 -999820.66732770938
 47073.076014511615 988.16109191176963 -998890.95954072417
 40685.528851362753 1017.0479823550928 -999171.48345791292
 33702.912147006158 1043.8376833209416 -999431.35037665383
 28158.355400956523 1067.4244362039665 -999602.90497086209
 24143.954345042672 1089.8392200116109 -999707.89819779794
 21343.781739534563 1112.1544356050392 -999771.57695824013