# OOMMF OVF 2.0
#
# Segment count: 1
#
# Begin: Segment
# Begin: Header
#
# Title: Oxs_TimeDriver::Magnetization
# Desc: Oxs vector field output
# Desc:  MIF source file: /mnt/gpfs/work/plgrid/groups/plggspinsym/MF/switching-obrazki/p-ap/Anisotropy.mif
# Desc:  Iteration: 23300, State id: 163250
# Desc:  Stage: 0, Stage iteration: 23300
# Desc:  Stage simulation time: 3.43054e-09 s
# Desc:  Total simulation time: 3.43054e-09 s
# meshunit: m
# meshtype: rectangular
# xbase: 1.0000000000000001e-09
# ybase: 1.0000000000000001e-09
# zbase: 3.4999999999999998e-10
# xnodes: 35
# ynodes: 35
# znodes: 5
# xstepsize: 2.0000000000000001e-09
# ystepsize: 2.0000000000000001e-09
# zstepsize: 6.9999999999999996e-10
# xmin: 0
# ymin: 0
# zmin: 0
# xmax: 7.0000000000000005e-08
# ymax: 7.0000000000000005e-08
# zmax: 3.4999999999999999e-09
# valuedim: 3
# valuelabels: Magnetization_x Magnetization_y Magnetization_z
# valueunits: A/m A/m A/m
#
# End: Header
#
# Begin: Data Text
 -0 0 -0
 0 0 -0
 -0 -0 0
 -0 0 0
 0 0 0
 -0 0 -0
 0 0 0
 0 -0 0
 -0 0 0
 0 0 0
 0 0 0
 -0 -0 0
 0 0 0
 1098.3433442679111 -14049.223930173377 -999900.70154433721
 3266.883487047246 -13262.240344374151 -999906.71587570128
 5915.0070339702334 -11851.484508746255 -999912.27365540783
 8037.0783141154016 -10022.963554013777 -999917.4693812324
 9410.821131249073 -7861.833501028832 -999924.81118314003
 10023.836401003922 -5405.1931947187322 -999935.15119248291
 9929.7723509966399 -2709.4294244238786 -999947.02790360409
 9346.4337398391363 45.731535505525635 -999956.32008851925
 8974.2390322603751 2281.8890525788438 -999957.12708902848
 0 0 0
 -0 0 -0
 -0 0 -0
 -0 0 0
 0 -0 0
 -0 0 0
 -0 -0 0
 0 0 0
 0 -0 0
 0 -0 -0
 0 -0 0
 -0 -0 0
 0 0 -0
 -0 -0 -0
 -0 -0 -0
 -0 -0 -0
 -0 0 -0
 0 0 -0
 0 0 -0
 -0 -0 0
 0 0 0
 0 0 -0
 0 0 0
 -3955.0846736084677 -14503.823957667595 -999886.99181248958
 -1760.0754402799917 -15032.761951895138 -999885.45254071092
 347.21919126232768 -14937.323816966087 -999888.37166756787
 1850.3926740674469 -13717.890336830493 -999904.19317635545
 4264.669546327822 -11961.69819017746 -999919.36193378503
 6885.8357832564907 -10168.628455455779 -999924.58928706276
 9015.7191944279093 -8314.8429728113042 -999924.78726839484
 10462.134398311047 -6292.3735292168221 -999925.47211239696
 11220.573054513507 -4013.9198246272131 -999928.99107285112
 11377.469890032071 -1405.1786276995235 -999934.28716687474
 11199.865255375818 1591.989645895384 -999936.01224639802
 11335.331557450896 4940.3266642501176 -999923.54879307305
 12190.495840859905 8698.3674005370103 -999887.85882003757
 10850.818357563036 11016.793066806789 -999880.43785819435
 8697.8672982512871 12557.040071140627 -999883.32711827627
 -0 0 -0
 0 -0 0
 -0 0 -0
 0 -0 -0
 -0 0 0
 -0 0 0
 -0 0 -0
 -0 0 0
 -0 0 -0
 -0 0 0
 0 -0 -0
 -0 0 -0
 -0 0 0
 -0 0 0
 -0 -0 0
 0 0 -0
 0 -0 -0
 -0 -0 0
 -8721.1566974508678 -11192.040676642855 -999899.33475892991
 -7049.0773601283436 -12587.459453908847 -999895.92777091905
 -4527.1072455830763 -13324.132826597908 -999900.98148987046
 -1559.9586921701452 -13102.419363203095 -999912.94277837477
 1151.9389396472338 -12431.718842911398 -999922.05966429727
 3432.2652811460575 -11082.035962959792 -999932.70175245067
 5879.1362509391047 -9344.215669463525 -999939.05883831985
 8300.577087782267 -7613.6990008933362 -999936.56399170321
 10331.91466121224 -5921.8169372782404 -999929.08929763362
 11816.103243289062 -4155.8767321177438 -999921.55111925211
 12742.640835571614 -2194.6253552866015 -999916.40086763538
 13196.762087425657 64.072804122994583 -999912.9168908078
 13371.963140964603 2670.5991067165919 -999907.02492890216
 13509.010903906128 5518.9957680185526 -999893.51798584557
 13378.638718308826 8332.3017397371514 -999875.78467215749
 11921.359307693176 10831.667323071108 -999870.26967265073
 9605.3600285579305 13491.447190244719 -999862.84955059446
 7317.7294744334586 16212.912801337978 -999841.78363070777
 4561.4047329937412 17444.644452115961 -999837.42576820997
 -0 0 -0
 -0 -0 -0
 0 0 -0
 -0 0 0
 -0 0 -0
 0 0 -0
 0 -0 -0
 -0 -0 -0
 -0 -0 0
 0 0 0
 0 0 0
 0 0 -0
 -0 0 0
 0 0 0
 -0 -0 -0
 -11073.122312856782 -8600.8936902953501 -999901.70046358707
 -9732.0576428906661 -9950.5493707464339 -999903.13211893477
 -7063.2279495536504 -10496.207400134144 -999919.96701793373
 -3910.0534183181503 -10413.225042245245 -999938.1361996776
 -655.84087777223056 -9824.583236943914 -999951.52254344977
 2338.6135160571198 -8976.2696203017695 -999956.97780980857
 4976.7629789942748 -7818.6544170355655 -999957.04931429843
 7448.3308681908702 -6450.7819016002832 -999951.4537116969
 9724.1466607381517 -5050.038232493891 -999939.96724081924
 11656.23543842202 -3657.1218223573474 -999925.37603332207
 13152.547171953265 -2210.2578089685553 -999911.05867637403
 14202.678773031605 -621.92199919157599 -999898.94345813617
 14859.768699599204 1178.1058547959401 -999888.89349806728
 15212.33124290673 3204.8553017820386 -999879.14963792032
 15288.557355542145 5379.782715569977 -999868.65034959465
 14858.503240879671 7592.0904415351642 -999860.78283137397
 13512.463037017818 9875.5484858083182 -999859.93363309558
 11323.606811597823 12432.830117865198 -999858.59033367143
 8458.1552522646671 15118.12513217689 -999849.93969206
 4916.7083606644846 17533.957945128866 -999834.17940060154
 2073.6868002510532 19342.087118027128 -999810.77384121681
 -0 -0 -0
 0 -0 0
 -0 0 -0
 -0 -0 -0
 0 -0 -0
 0 -0 -0
 0 0 -0
 0 -0 -0
 -0 0 -0
 0 0 -0
 -0 0 0
 -0 0 0
 -0 0 -0
 -11632.648662981017 -5298.4070030421444 -999918.30084678088
 -11508.740201870733 -6930.4293781630731 -999909.75495171582
 -9518.8699100876856 -7444.4857122103049 -999926.98270829534
 -6383.4918784159336 -7351.4241324546501 -999952.60267407843
 -2943.125811633493 -6965.6152843695518 -999971.40869835205
 419.1840830805308 -6379.191170531727 -999979.56489356025
 3505.3481612176056 -5659.6994393506238 -999977.8399227279
 6261.4301562653181 -4796.1699043779554 -999968.89513956697
 8740.3469086589284 -3818.7827638118933 -999954.51058241609
 10942.580565820723 -2792.2692497732151 -999936.22954816325
 12815.835807875808 -1738.1523479936327 -999916.36309191422
 14317.506320119232 -627.52013191334527 -999897.30234222428
 15440.553030182922 587.84530406596934 -999880.61475359183
 16207.234564561495 1945.3736542765971 -999866.76165832952
 16640.282467851932 3449.2606913659088 -999855.59137311066
 16703.95980753332 5068.1160424034342 -999847.63435561978
 16245.399557156932 6785.847999268377 -999845.00761876022
 15065.171472098038 8672.7843934913417 -999848.90029412962
 13095.330252388496 10850.258390637846 -999855.38165198546
 10303.61978260144 13349.19016979924 -999857.80716119136
 6740.6516229124072 16134.899268641433 -999847.10263184202
 3065.2160725597664 18944.721953451553 -999815.83402171382
 431.90051173344841 20817.56788169991 -999783.19766309264
 0 -0 -0
 -0 0 -0
 0 0 0
 0 0 -0
 0 -0 0
 -0 0 0
 -0 0 0
 0 -0 0
 -0 -0 -0
 -0 -0 -0
 0 0 0
 -10568.339302882339 -1551.4476432610709 -999942.94997994252
 -11758.519143400881 -3557.4900812592605 -999924.53789867391
 -11036.977111307766 -4377.8232809219462 -999929.50741518044
 -8652.3325062307995 -4388.0935860463351 -999952.93978110887
 -5420.1981334192233 -4092.0271893747945 -999976.93811691285
 -1966.8228542100235 -3704.0260067963723 -999991.20586093201
 1380.7263461349621 -3265.8355195712675 -999993.71393680084
 4469.2326196225531 -2775.6856786182648 -999986.16066863923
 7248.5353099167623 -2214.6210000495535 -999971.27668232901
 9723.9110828385146 -1582.7666898882621 -999951.4690238015
 11895.075737138439 -897.55380492378981 -999928.84825390216
 13743.821134622825 -165.5924198703153 -999905.53551811574
 15252.435350267357 626.44117300665994 -999883.4786050535
 16416.037770270937 1501.4495187880484 -999864.12044500711
 17238.892487110657 2477.1980778167076 -999848.33053593722
 17715.793673636905 3557.3605644173722 -999836.73459236708
 17803.484978309625 4738.1696540937637 -999830.27843277273
 17404.772104593565 6037.187047215386 -999830.29874101328
 16401.224133092532 7520.5044782910909 -999837.20767899393
 14705.513585785608 9287.2340656810866 -999848.73613641551
 12251.422340124936 11429.434332861954 -999859.6254882355
 9041.289491511774 14014.109379560809 -999860.92023972422
 5307.5799457654921 16961.203367392081 -999842.06111537886
 1594.8350473657204 19782.207528358493 -999803.04098681198
 -1119.3818808373178 21456.142170070732 -999769.1638310228
 0 -0 0
 0 0 0
 0 -0 -0
 0 -0 0
 0 -0 -0
 -0 -0 0
 0 -0 -0
 0 -0 0
 0 0 -0
 -7955.3053682342616 2288.1506196088367 -999965.73815468303
 -10500.047817788602 -22.563585137988778 -999944.87272384635
 -11285.604053706822 -1241.108661730266 -999935.54531801329
 -10126.499818307706 -1525.2599749514513 -999947.56241686922
 -7643.4905833843368 -1368.9843968735113 -999969.85101223085
 -4490.7514038883628 -1098.9150868390761 -999989.3127116214
 -1140.707473643598 -836.83239763312088 -999998.99924849812
 2130.7229504451384 -592.11939184835899 -999997.55470417731
 5181.8614347743014 -339.29361254599246 -999986.51650505536
 7952.0538794948334 -50.193184012839225 -999968.38065997965
 10422.747185779963 289.73629553758633 -999945.63971946994
 12585.761863052807 682.59883118401194 -999920.56317347661
 14431.349386704604 1129.5832430214653 -999895.22460934671
 15950.811452539983 1637.2823084264683 -999871.43719612656
 17139.788491786159 2215.5790439413295 -999850.64827700984
 17994.97894605733 2872.5071185378538 -999833.9509316457
 18503.737539306298 3612.4650807144089 -999822.2651017115
 18631.164145497536 4442.8874565199712 -999816.55341049039
 18315.562927777355 5389.3052644152012 -999817.73116073816
 17481.431265827287 6507.2626901667454 -999826.01241074898
 16057.136729267168 7878.0111506900375 -999840.03985655983
 13979.147245287621 9594.0286013622535 -999856.25869796448
 11212.743665827513 11739.12392461383 -999868.22499215696
 7798.2416396684821 14326.82235141192 -999866.95594395977
 3898.8092138209863 17184.637177749293 -999844.73171177099
 -44.871497566548193 19797.637013853764 -999804.00657089613
 -3063.1994202129122 21144.288138511776 -999771.74189333199
 0 -0 0
 0 -0 0
 0 0 -0
 0 0 -0
 0 0 -0
 0 -0 0
 -0 0 -0
 -3893.1627580992963 5840.4570385843572 -999975.36586923967
 -7760.9514395825772 3368.1955709938043 -999964.21080524079
 -10162.271559590148 1788.638181697293 -999946.7630880177
 -10501.604450800238 1194.1353778240143 -999944.14361236105
 -9167.9268047806036 1163.5342763746678 -999957.29674126056
 -6740.9227415989335 1332.4948514735759 -999976.3919303607
 -3734.2048126308314 1503.5155237471527 -999991.89754491893
 -523.22297212010949 1614.0230696124559 -999998.56058259017
 2651.9309202987956 1674.1440656908458 -999995.08223992842
 5652.1949833062326 1718.0190928235318 -999982.55039888911
 8404.3884364661953 1778.7061453194519 -999963.10054894397
 10873.150648948771 1877.9180327992476 -999939.12215635786
 13040.401560003796 2026.3159164049791 -999912.91719377274
 14894.828135864809 2229.1094599004218 -999886.58115099184
 16428.933241787221 2490.4830088765721 -999861.93429238978
 17637.932421942936 2814.6331276859596 -999840.47786646197
 18516.589278738236 3205.2936108169315 -999823.41541611799
 19053.370160680141 3666.9063820211445 -999811.74372133962
 19224.368630067442 4209.6704064515488 -999806.33240935428
 18991.410772859668 4857.5724532734712 -999807.84669191181
 18306.474445662552 5654.324898378256 -999816.43395341036
 17117.395150727873 6662.5036412070522 -999831.28868248803
 15369.786692163998 7956.800864440509 -999850.21827123733
 13011.41642703085 9610.7428697153446 -999869.15977244475
 10000.996578932549 11667.14013895857 -999881.92198299384
 6324.8339343027028 14087.71191266198 -999880.75931521412
 2071.9914371108457 16669.224740401598 -999858.91194609972
 -2353.5587428817726 18878.226515181377 -999819.02028561395
 -5936.1114245672143 19672.571993400663 -999788.85395483347
 0 0 0
 0 0 0
 -0 0 0
 0 -0 0
 -0 0 -0
 1524.0417780997468 8389.1985322365781 -999963.64866161288
 -3649.2730255306847 6205.5876869613166 -999974.08640816493
 -7661.4658254385649 4443.0614462150161 -999960.77980408375
 -9616.4041923346995 3593.0074791099623 -999947.30614551133
 -9686.3072610077452 3391.4881813700563 -999947.33524299215
 -8327.9981090737438 3485.110033801649 -999959.24839742715
 -6022.1922534829091 3629.5801577880043 -999975.27936861524
 -3179.7310819198783 3706.7468464850899 -999988.07459792378
 -112.28431745336606 3689.8602595888624 -999993.18613853399
 2964.337049239547 3600.8738234465222 -999989.12314763002
 5911.0527860743086 3477.763490304932 -999976.48203148542
 8643.4315117531187 3356.0512477412849 -999957.01308192429
 11112.420857016652 3261.2183216716385 -999932.93703015649
 13289.756596493346 3208.3544375938618 -999906.54004832299
 15158.873989049218 3205.3508149524469 -999879.95992795925
 16710.127143995815 3256.2899095347857 -999855.07361159904
 17937.827603456099 3363.5958414912839 -999833.44641189289
 18837.131892357975 3529.4804216412763 -999816.33574873314
 19400.293965142406 3758.0381480777169 -999804.73380722862
 19613.237061318927 4058.8676828772241 -999799.40314300521
 19453.969101692852 4451.5740620038923 -999800.84345561604
 18893.073793289292 4968.9512833114304 -999809.16243340424
 17894.060365367499 5656.8982160824971 -999823.88554495631
 16411.359483120072 6570.8125024338633 -999843.73364189954
 14386.553714200474 7767.7945951813135 -999866.33528655011
 11743.575457039933 9291.9352685638132 -999887.86790042091
 8388.3094262592058 11149.911999622062 -999902.65312547795
 4237.6473914316412 13266.635151215722 -999903.01466509758
 -667.97963503096071 15388.188454579589 -999881.37169330905
 -5866.7725337219799 16893.592614391138 -999840.08096725948
 -9998.0411862713827 16686.100301410857 -999810.78871412924
 0 0 0
 -0 -0 -0
 0 -0 -0
 0 0 -0
 667.87997366950049 7636.4737857055916 -999970.6186705993
 -4004.0947906471592 6330.3090870795922 -999971.94681239396
 -7441.3052522599974 5443.9338204133928 -999957.49437698687
 -9007.0451146189444 5150.6785220548909 -999946.17037571874
 -8942.7179723495665 5217.3602513244305 -999946.40203726664
 -7638.0382715563837 5397.6300694014071 -999956.26202399284
 -5479.8179860520131 5531.9461479577876 -999969.68412380165
 -2803.4039986218231 5550.9287867873163 -999980.6638708692
 124.11480687168046 5449.2875226166034 -999985.14482016698
 3103.9568039420856 5255.9438197085292 -999981.3700798247
 5996.218923564863 5010.8027185238407 -999969.46814127127
 8706.951479856858 4750.8194836072871 -999950.80814516149
 11175.472966164685 4503.9095786160478 -999927.40916653059
 13363.810818914104 4288.1948798941467 -999901.50512191362
 15249.013657047457 4114.0355260191964 -999875.26336747536
 16817.989787250721 3986.7748766188247 -999850.61926549755
 18063.835844086545 3909.1551479321033 -999829.19358289742
 18982.71027716621 3883.3864887335908 -999812.2703887528
 19570.86935064998 3913.3475045771943 -999800.81355446402
 19822.071190193226 4007.2144669500144 -999795.49295140698
 19725.657899685386 4180.1586784814281 -999796.69167978712
 19264.999984344064 4456.159556675193 -999804.48209517868
 18415.031530538989 4868.0877983728105 -999818.57771043456
 17137.487243499843 5455.7875261222707 -999838.2573763862
 15373.216523749981 6261.8981039852324 -999862.21693083749
 13031.835940774954 7324.6499363474841 -999888.25413409213
 9982.7176476333716 8666.1403352999278 -999912.61786220933
 6062.8234755837257 10270.811350068643 -999928.87377338752
 1146.1509902398216 12040.68919706138 -999926.85139542446
 -4578.4762589649445 13709.023831759196 -999895.54465490382
 -9616.3940892578848 14740.843677229523 -999845.10424985515
 -0 0 -0
 -0 -0 -0
 0 0 -0
 8490.0208363901857 8963.4364829858714 -999923.78527196404
 1786.6123667797051 7552.2399558202351 -999969.88539050531
 -3658.8207864244805 6616.8432757599785 -999971.41479920165
 -6940.612753510165 6305.5606422476503 -999956.03293324495
 -8346.1387900970494 6399.2814978435172 -999944.69405242987
 -8268.5952272908035 6668.3006007010699 -999943.5804584506
 -7069.267226707304 6933.1864067410597 -999950.97699193563
 -5072.7057137422544 7087.0957956747825 -999962.01964370848
 -2561.6987989497738 7089.8538904907773 -999971.58543184376
 228.3963437258424 6948.3821027604699 -999975.83361862507
 3111.1488595734636 6695.1021267430579 -999972.74780880194
 5945.6918353877645 6370.6235818383366 -999962.03123107483
 8630.159738837363 6012.763753411321 -999944.68197742209
 11093.917884843628 5651.3322464837993 -999922.49071105721
 13290.08339999133 5307.067154941331 -999897.59911774669
 15189.20776154928 4992.9459785499621 -999872.17105889681
 16774.312912140471 4716.4201822437235 -999848.17737844063
 18037.01258147832 4481.7258805264755 -999827.27523821197
 18974.310985966586 4292.0166640562029 -999810.75915173243
 19585.806551554531 4151.3921289961363 -999799.56097465695
 19871.173895035587 4066.8829536119306 -999794.27729462169
 19827.77071443951 4050.2104283177764 -999795.20668183954
 19447.88195111739 4118.9308253368217 -999802.38762290997
 18714.704537654306 4296.6367334305723 -999815.63237771473
 17596.027496030871 4612.1372068973615 -999834.54031491838
 16034.831924788814 5097.6612065969657 -999858.4389879232
 13936.817695163065 5786.0515605862875 -999886.13687752956
 11157.666070156329 6706.5283448742584 -999915.260892355
 7501.1115053836984 7876.9803656155209 -999940.84150338802
 2762.6586153160288 9286.530349747225 -999953.06293417525
 -3073.8197446113627 10846.456455918589 -999936.45098802517
 -9223.8192888157664 12193.272813431329 -999883.11579695391
 -13555.294295706899 12073.643307553026 -999835.22699184727
 -0 -0 0
 0 0 -0
 7820.5000173643366 7952.9194370242421 -999937.79349112848
 1779.2087697879754 7208.9025611608113 -999972.4326900302
 -3255.7352784926929 6850.3681226134549 -999971.23590850411
 -6317.9903473934419 6971.9737500811143 -999955.73631036223
 -7659.2240386097701 7351.0727222500573 -999943.6474206727
 -7640.1461153982837 7788.0451884127742 -999940.48548875086
 -6578.8783756390358 8145.7064663186666 -999945.18141020276
 -4753.4031900243999 8348.5610283226979 -999953.8522786285
 -2408.8040917193694 8372.9339819968063 -999962.04509940324
 242.83534765700466 8231.6968782208605 -999966.08952378936
 3024.4903656445476 7958.101422249928 -999963.75988321763
 5794.5725506751123 7592.3620528049541 -999954.38844349992
 8444.7836706745038 7172.6186390833645 -999938.61770141381
 10896.038223640018 6730.2186353188417 -999917.98689099972
 13093.476554525643 6288.3440001271247 -999894.50323594257
 15001.449512788598 5862.7442381970513 -999870.28395813075
 16599.002848007003 5463.4857545087452 -999847.30005529453
 17876.010634672279 5096.9875692984788 -999827.21955421264
 18829.885561480332 4767.9873803781329 -999811.33305543312
 19462.684317639563 4481.3286122796535 -999800.54091454681
 19778.392263881826 4243.5304931744313 -999795.38289012387
 19780.065341373989 4064.0569208196575 -999796.09543968295
 19466.333067376065 3956.1570268202763 -999802.68588281423
 18826.542324071397 3937.2108309211271 -999815.01272735081
 17833.729120814089 4028.660475474047 -999832.85003065341
 16434.716150911485 4255.7350648219754 -999855.88402734173
 14537.283693029027 4647.2108921018771 -999883.52862408571
 11996.524852409524 5235.1541319061553 -999914.33460706053
 8608.8757006707983 6053.0927957516442 -999944.62213003391
 4140.1430871384 7125.3847280870668 -999966.04347732465
 -1537.8305609979413 8420.6284552279885 -999963.36337567132
 -8015.7835413877146 9696.4278503395817 -999920.86011901998
 -13261.624438933128 10303.740518182616 -999858.97117972339
 0 0 0
 -0 -0 0
 7905.6773845758862 7328.4279426022649 -999941.89551642502
 2123.2186400896276 6936.8194583735694 -999973.685892988
 -2642.2145964085253 7008.8543805173886 -999971.94693766232
 -5586.4376780266766 7449.1394143137441 -999956.65007842006
 -6941.910865553542 8045.7768053662658 -999943.53608047962
 -7028.5869811996299 8628.5314341709545 -999938.07178761694
 -6126.6782781944203 9086.411558898797 -999939.94866604754
 -4479.4107771086992 9361.2491617800515 -999946.14949667221
 -2304.1253488424886 9437.3183276964555 -999952.81290126813
 204.82006579669348 9329.018078352814 -999956.46278747264
 2878.0739701317007 9068.3165387716654 -999954.74013845995
 5573.8754256320981 8693.9828235536024 -999946.67186575674
 8178.9328553807554 8243.8685388629528 -999932.56957099913
 10607.146023051238 7750.4591993897511 -999913.70569436857
 12796.671163091405 7239.1720435167745 -999891.91395633761
 14706.133204436293 6728.5519805782214 -999869.21956544789
 16310.660711979608 6231.5274401512179 -999847.55358649604
 17598.156970284941 5757.0863286568065 -999828.56571927061
 18565.93349031009 5311.9802119933311 -999813.52710386005
 19217.640770413753 4902.2632310737599 -999803.30570489366
 19560.274120061142 4534.5830732008817 -999798.39629432303
 19600.925140993026 4217.1859912691389 -999798.98933532252
 19342.809505368903 3960.6288816203814 -999805.06556993467
 18779.991780245684 3778.257648563786 -999816.50150308828
 17890.143455918824 3686.6119081665161 -999833.16191240889
 16624.764391914308 3706.0243473502369 -999854.93077368487
 14896.787220255163 3861.7333335255712 -999881.57936136366
 12567.165882035819 4185.6583298633905 -999912.26945469528
 9436.744090904509 4718.0232705454482 -999944.34250981256
 5262.5051918230556 5504.7484230499113 -999971.00147149514
 -146.17576000145141 6577.5592985247104 -999978.3569389499
 -6574.7693299448983 7884.3634088932195 -999947.30322247208
 -12209.947714148253 9081.0913746586193 -999884.21877548541
 -0 0 -0
 18090.682040859738 8150.9201724905588 -999803.12548203114
 10186.555837799435 7136.7623141579188 -999922.64736020181
 3148.6118197441024 6771.004546270723 -999972.11948185973
 -1771.0313939658608 7088.9440052764548 -999973.30480402906
 -4750.9274425963895 7752.3332843195958 -999958.66415421583
 -6187.4529187703865 8519.0037351950068 -999944.56946459692
 -6410.8225830038919 9231.6560945472356 -999936.83694499487
 -5681.050809970503 9793.9586908878427 -999935.89996302035
 -4216.8893108644434 10156.465243403058 -999939.53020085138
 -2214.7149006162981 10306.02540883901 -999944.43889557244
 145.33214754994347 10255.617397163256 -999947.3992117634
 2700.739701107982 10034.350036975717 -999946.00745460368
 5310.3709973728655 9678.6111510784176 -999939.06036620867
 7857.3883405676379 9225.3082164305051 -999926.57487276394
 10250.08740776587 8707.5742416084486 -999909.55283913575
 12420.675365186751 8152.7344022139587 -999889.62378116511
 14322.613666052555 7581.9853252368894 -999868.67949561286
 15927.259980602033 7011.148111373087 -999848.57163055975
 17220.349658508316 6451.9405797573572 -999830.90171308175
 18198.602805834511 5913.376279571241 -999816.90465649345
 18866.4780351681 5403.0587782370403 -999807.41293630516
 19232.91901431555 4928.2645200659226 -999802.8840901634
 19307.788779551312 4496.7901243240367 -999803.47477442888
 19097.597853215866 4117.6045784418393 -999809.14533163398
 18600.030309134778 3801.4084113471517 -999819.77784328186
 17796.733898589991 3561.2750515359094 -999835.28322546708
 16643.883719879235 3413.6152633397578 -999855.65376485861
 15060.444643638124 3379.744039806782 -999880.87307306845
 12915.36522621764 3488.2310642412658 -999910.50878821954
 10018.631367887823 3777.7604067241291 -999942.67613289901
 6130.9388831510632 4298.7928618354808 -999971.96559120715
 1033.7203325668165 5107.7692540685721 -999986.4209655656
 -5224.8923487423963 6226.2672776161908 -999966.96650226018
 -11666.216515360244 7420.5482708301224 -999904.41285933775
 -15951.616869978872 7526.7878237663326 -999844.43459184654
 17924.880102584575 6616.5683857418162 -999817.44318455691
 10709.362292633243 6325.4577091693091 -999922.64608021302
 3941.7232887422724 6431.8453986376071 -999971.54668634594
 -875.55738307454806 7027.07094497453 -999974.92652226193
 -3870.9925710534162 7881.7417079845163 -999961.44603887759
 -5402.03529695001 8793.4466552782051 -999946.7452372507
 -5772.5485286865305 9625.47859364746 -999937.01193891582
 -5219.5044875501844 10293.295073147692 -999933.4002069548
 -3940.7423841212171 10752.421913613969 -999934.42583624134
 -2115.2822018372121 10989.581469072882 -999937.37537924887
 89.011822931183573 11014.691903733627 -999939.3324793065
 2516.2640928148071 10852.990848337562 -999937.93857652054
 5026.9289875720269 10537.741232508641 -999931.84067448846
 7502.0650394405138 10104.267161800763 -999920.80826696835
 9845.7638462682771 9585.7890232696354 -999905.58233419457
 11985.34149401144 9011.0915112456114 -999887.56958922534
 13869.722230595587 8403.7181098205947 -999868.4955168739
 15466.698841572592 7782.2257867651588 -999850.09785904794
 16759.69317794008 7161.0341198067999 -999833.90234324243
 17744.386675826328 6551.4963341586317 -999821.09131448239
 18425.349509408294 5962.9489831717483 -999812.45728130429
 18812.569759531107 5403.6155538606481 -999808.42572864343
 18917.653853653708 4881.3379801488009 -999809.12924027524
 18749.35083526899 4404.1801354695635 -999814.51531801152
 18307.992326616932 3981.0050252561941 -999824.46910243086
 17578.368288438352 3622.1654207251781 -999838.92747081071
 16520.606710351356 3340.4731501005213 -999857.94530675979
 15058.913386023036 3152.5775047706343 -999881.63818659505
 13069.101190931415 3080.7101703476897 -999909.84984592872
 10368.795573652653 3154.1523544080915 -999941.26797591301
 6722.052229280087 3407.9981734901153 -999971.59937784052
 1890.0942174853506 3871.2275722138211 -999990.72052741237
 -4192.68088746379 4519.3612339071678 -999980.99821997283
 -10949.178871449187 5140.7953772470855 -999926.8411763584
 -16154.643150357064 5257.6756064877409 -999855.681762074
 18254.683308983229 5103.9888805198261 -999820.34177885985
 11283.271682911683 5366.4656550656073 -999921.94136667624
 4766.0993130132611 5937.9201016289726 -999971.01228095847
 60.651006330206606 6810.6632624495815 -999976.80532469391
 -2951.0484938348363 7842.0563133872811 -999964.89611664112
 -4581.5463344301807 8884.4954388609094 -999950.03633880743
 -5101.9687529429439 9827.5171698742779 -999938.69303128787
 -4726.033457870426 10598.653468583978 -999932.66430915613
 -3633.0856697096083 11157.405081682231 -999931.15413030307
 -1987.1721973963247 11489.458448159878 -999932.01943493437
 54.895106748180126 11601.051885890942 -999932.70402646007
 2343.9534777203171 11513.065887287074 -999930.97521577426
 4743.0374781167202 11255.136715066868 -999925.40996466635
 7132.4952830543361 10860.442656013647 -999915.58558527962
 9413.5736101926123 10361.706572693969 -999902.00503288663
 11509.767821308571 9788.6320765219698 -999885.84744798252
 13366.130589080241 9166.6669129214915 -999868.65075908031
 14947.15585305469 8516.7848473405629 -999852.01250373467
 16233.856749356988 7855.9107526014923 -999837.36005476851
 17220.48915680456 7197.6546639665175 -999825.80908903235
 17911.109042606553 6553.1114622559953 -999818.10790914705
 18315.955782076999 5931.5927229866156 -999814.6538091735
 18447.477268911873 5341.2486435549308 -999815.56381431699
 18315.722495969505 4789.611995079792 -999820.78090345126
 17922.721422213152 4284.1361969563286 -999830.19670035341
 17255.421524239893 3832.8220099735654 -999843.76774747192
 16276.719604059477 3445.0077689011841 -999861.5905816179
 14914.342410426649 3132.3231979818956 -999883.86872768763
 13048.085546169603 2909.5541555989648 -999910.63698622352
 10498.217878317359 2794.5184132010759 -999940.98730285966
 7023.9761563114853 2804.4611295080285 -999971.39896935492
 2357.3332989800629 2943.2680748215203 -999992.89005110308
 -3658.1144061478949 3170.6278675253425 -999988.28259030974
 -10617.646451556033 3360.6449745039404 -999937.98390159442
 -16242.428827230558 3358.3575162850461 -999862.44300932961
 19116.709836034741 3859.7392685719842 -999809.80882256979
 12218.822435298138 4436.90716690921 -999915.50354671816
 5781.7731837412675 5340.6919077126258 -999969.02357462991
 1097.353018001455 6449.4902520339565 -999978.59971693542
 -1969.0411990710274 7640.5244528664143 -999968.87214694894
 -3713.8072672223157 8802.2232875487171 -999954.36320903094
 -4388.238089136863 9847.8743586097808 -999941.87967955915
 -4189.1881665565634 10717.112725606896 -999933.79490710865
 -3281.5785127026825 11373.57736223863 -999929.93403560529
 -1817.0736687870949 11802.075336915619 -999928.70208881598
 57.379543108934911 12005.284710460515 -999927.93232642952
 2199.3566533175481 11999.709861053463 -999925.58212777122
 4475.3424157161826 11811.131237242642 -999920.23106303776
 6766.236729712964 11470.152311320158 -999911.3228914215
 8971.7252057395654 11008.442961277922 -999899.15608045226
 11012.527846334009 10456.036113405793 -999884.69112154562
 12830.520890092635 9839.7383658362141 -999869.27009613649
 14387.209899944417 9182.4854343475963 -999854.33446704783
 15661.165621602691 8503.3637198829347 -999841.19773933105
 16644.887328451092 7818.0082593555508 -999830.89893875539
 17341.362603908547 7139.1505082851063 -999824.13937305007
 17760.360133336064 6477.1725157891733 -999821.29195378476
 17914.348421839768 5840.6127535642991 -999822.46592246764
 17813.788308446285 5236.627246773257 -999827.60848117236
 17461.467334035198 4671.4496401855968 -999836.62401254429
 16845.43047293038 4150.8950521664574 -999849.48944450996
 15930.032477231525 3680.935326606118 -999866.33345682546
 14644.715944039979 3268.2957592471107 -999887.4189316259
 12870.696171032043 2920.8574724202495 -999912.90309291368
 10427.531720499444 2647.2497642371209 -999942.12765084743
 7066.9734444362666 2454.286022835709 -999972.01679169678
 2497.5847689244833 2340.0814017417551 -999994.1430275254
 -3485.7343429763014 2282.2935137631312 -999991.32035853539
 -10530.1353733671 2232.682238762759 -999942.06401123025
 -16297.512469336389 2155.7895700536083 -999864.8626982756
 20402.943507692384 2724.1024176952128 -999788.12713606493
 13501.510617698819 3495.6125139883939 -999902.74022236397
 7023.2390208197312 4640.8666566668608 -999964.56760743854
 2267.294116573672 5946.5314820810254 -999979.74886530649