# OOMMF OVF 2.0
#
# Segment count: 1
#
# Begin: Segment
# Begin: Header
#
# Title: Oxs_TimeDriver::Magnetization
# Desc: Oxs vector field output
# Desc:  MIF source file: /mnt/gpfs/work/plgrid/groups/plggspinsym/MF/switching-obrazki/p-ap/Anisotropy.mif
# Desc:  Iteration: 33000, State id: 231150
# Desc:  Stage: 0, Stage iteration: 33000
# Desc:  Stage simulation time: 4.8589e-09 s
# Desc:  Total simulation time: 4.8589e-09 s
# meshunit: m
# meshtype: rectangular
# xbase: 1.0000000000000001e-09
# ybase: 1.0000000000000001e-09
# zbase: 3.4999999999999998e-10
# xnodes: 35
# ynodes: 35
# znodes: 5
# xstepsize: 2.0000000000000001e-09
# ystepsize: 2.0000000000000001e-09
# zstepsize: 6.9999999999999996e-10
# xmin: 0
# ymin: 0
# zmin: 0
# xmax: 7.0000000000000005e-08
# ymax: 7.0000000000000005e-08
# zmax: 3.4999999999999999e-09
# valuedim: 3
# valuelabels: Magnetization_x Magnetization_y Magnetization_z
# valueunits: A/m A/m A/m
#
# End: Header
#
# Begin: Data Text
 -0 0 -0
 0 0 -0
 -0 -0 0
 -0 0 0
 0 0 0
 -0 0 -0
 0 0 0
 0 -0 0
 -0 0 0
 0 0 0
 0 0 0
 -0 -0 0
 0 0 0
 14739.474737847968 32228.216307791645 -999371.8476913739
 12726.987644216448 32057.50086848902 -999404.99319523666
 11171.913153476791 31744.2039836695 -999433.58652285358
 10218.485130143321 31450.584150338356 -999453.07209405664
 9526.0178312380904 31243.500515205313 -999466.40696915623
 8728.3637319714326 31151.201707032229 -999476.57216103363
 7471.504685807221 31179.513349417364 -999485.87512031582
 5498.1938543044671 31281.893170704101 -999495.47924140049
 3244.6953980927615 31297.912898270435 -999504.8337051631
 0 0 0
 -0 0 -0
 -0 0 -0
 -0 0 0
 0 -0 0
 -0 0 0
 -0 -0 0
 0 0 0
 0 -0 0
 0 -0 -0
 0 -0 0
 -0 -0 0
 0 0 -0
 -0 -0 -0
 -0 -0 -0
 -0 -0 -0
 -0 0 -0
 0 0 -0
 0 0 -0
 -0 -0 0
 0 0 0
 0 0 -0
 0 0 0
 18376.760559537979 31632.586844272068 -999330.61302097456
 16800.192545764778 30521.184449973298 -999392.92114272865
 15817.485026351806 28675.825330058335 -999463.60824648384
 14400.438299854641 27816.352323723066 -999509.31857595732
 12490.247343774494 26870.574535197553 -999560.88656241423
 11101.538393130902 26275.450840172965 -999593.09547858092
 10256.144972885051 25922.435616552655 -999611.34388421208
 9654.9190850561463 25751.983925110068 -999621.73738938954
 8976.7592766633697 25770.938439720558 -999627.56890995405
 7924.5241309205076 26041.539864826718 -999629.45140625315
 6316.8509649479884 26687.074266920226 -999623.87799659849
 4509.428837459478 27801.502455327307 -999603.29206780146
 3812.2579331397242 28684.569776812463 -999581.24339453795
 2782.0682712129974 29854.95253790119 -999550.36986891949
 859.90166249610331 30348.112847040597 -999539.02005662292
 -0 0 -0
 0 -0 0
 -0 0 -0
 0 -0 -0
 -0 0 0
 -0 0 0
 -0 0 -0
 -0 0 0
 -0 0 -0
 -0 0 0
 0 -0 -0
 -0 0 -0
 -0 0 0
 -0 0 0
 -0 -0 0
 0 0 -0
 0 -0 -0
 -0 -0 0
 22482.386739388206 30125.5691388737 -999293.24643497891
 20330.148890825192 28641.398349420866 -999382.98732101033
 17925.913389401812 27354.92914555551 -999465.0416500807
 15776.119655549921 25432.715538219396 -999552.04518272378
 14348.874354713931 23396.373440088515 -999623.28880163864
 13046.91740206678 21711.07498734165 -999679.15211291553
 11734.010456554935 20471.16150798554 -999721.58351468993
 10767.458358938084 19732.436517655162 -999747.31446979416
 10172.334511585528 19345.439932800437 -999761.11024803855
 9765.7533491781887 19214.225700244486 -999767.69481328165
 9322.2818016790225 19330.544060623342 -999769.68604190543
 8641.3874115317249 19763.01470315491 -999767.34777319408
 7628.9541312967294 20640.544686751866 -999757.85416964674
 6453.6968584590604 22043.382226837748 -999736.18474918709
 5436.1434499916304 23699.723965245426 -999704.34200735705
 3979.89295045477 25441.256658997401 -999668.39647540823
 1712.4251004566142 27125.188958596398 -999630.57762567245
 -487.37178474597442 28165.976009492453 -999603.14138370764
 -2778.036536593489 28862.033595696277 -999579.54437339434
 -0 0 -0
 -0 -0 -0
 0 0 -0
 -0 0 0
 -0 0 -0
 0 0 -0
 0 -0 -0
 -0 -0 -0
 -0 -0 0
 0 0 0
 0 0 0
 0 0 -0
 -0 0 0
 0 0 0
 -0 -0 -0
 24989.006416536551 26997.860961949616 -999323.10343641776
 21893.750403184615 26032.015961654899 -999421.3314905056
 18701.441384095098 23810.402230826134 -999541.55533212505
 16103.662971496249 21564.634747925738 -999637.75367234356
 14105.712695586655 19461.444881521082 -999711.09878428048
 12731.432027426747 17610.987789819883 -999763.85399133014
 11704.042714923486 16101.180183832699 -999801.86406148237
 10885.582798080308 14999.85149746386 -999828.23952026875
 10332.174155009145 14312.244736612116 -999844.19077565765
 10027.737860464693 13955.459584248225 -999852.33390795963
 9861.3903459783669 13863.12048375921 -999855.27296249068
 9688.6222581926995 14024.801313995371 -999854.70721842442
 9379.8046660390028 14484.424855308613 -999851.09926480439
 8864.9609871223165 15315.732300427391 -999843.40814489464
 8162.28443250489 16553.143065069184 -999829.67077773332
 7267.9199057751039 18108.530238876214 -999809.61111245118
 5898.2738723328903 19919.063208244312 -999784.19735772628
 3835.6699782914297 21984.459181345937 -999750.95458335069
 1184.7179074244953 24112.112231170635 -999708.55877462158
 -2117.243782884811 26069.120705178786 -999657.90059621027
 -4993.6321842828756 26912.638793988663 -999625.31656153651
 -0 -0 -0
 0 -0 0
 -0 0 -0
 -0 -0 -0
 0 -0 -0
 0 -0 -0
 0 0 -0
 0 -0 -0
 -0 0 -0
 0 0 -0
 -0 0 0
 -0 0 0
 -0 0 -0
 26564.734558403983 25228.662311835549 -999328.68940894364
 23521.206408780356 23557.233371701132 -999445.75120661082
 19733.498914334505 21043.971478544754 -999583.78352442686
 16523.456043901304 18538.965237276243 -999691.59352687211
 14141.05275795044 16351.6808849433 -999766.29927155189
 12458.064071773231 14502.136149410037 -999817.22564011056
 11339.00524228756 12979.199359617633 -999851.47264186118
 10608.344502121799 11776.999556400375 -999874.3747633365
 10148.985199561943 10901.883546918307 -999889.06736424938
 9921.0120265753831 10341.33094029423 -999897.30992475024
 9879.2109426667703 10052.567348809696 -999900.66860706115
 9944.7161782797466 9998.5083774282866 -999900.56128115079
 10020.91397456802 10170.979056696407 -999898.06103829527
 10016.654293444426 10592.165505589001 -999893.73068675026
 9863.9726014383741 11298.920647890423 -999887.5118915682
 9514.6528220645687 12312.637524044103 -999878.92784020468
 8887.6357827181619 13622.102277285585 -999867.71538026026
 7807.0470594734516 15232.399736657077 -999853.50127629889
 6091.6553438929914 17179.937826490408 -999833.85693396535
 3617.0733559437263 19465.554560894598 -999803.98527210043
 302.76156772691189 22056.591176352038 -999756.67795774795
 -3355.8272638712706 24602.839518987577 -999691.67182235629
 -5937.5477993651184 26116.780293499942 -999641.26531132718
 0 -0 -0
 -0 0 -0
 0 0 0
 0 0 -0
 0 -0 0
 -0 0 0
 -0 0 0
 0 -0 0
 -0 -0 -0
 -0 -0 -0
 0 0 0
 27783.860861634887 24490.240238225913 -999313.90724271198
 24753.630658913298 22346.404102402932 -999443.79331350792
 20817.813280324248 19368.419982447158 -999595.65973327879
 17217.149735081257 16575.417614425452 -999714.37185123388
 14412.518635323117 14239.727066354435 -999794.73367269838
 12411.165711386357 12351.915695194926 -999846.68481939915
 11066.169049136497 10837.544648354851 -999880.03656867298
 10227.985201908126 9637.422533420684 -999901.24932696321
 9761.7488267940753 8715.0887541665488 -999914.37407802558
 9568.482969847646 8050.9535931142782 -999921.8100831171
 9585.4538958706326 7626.1921713627289 -999924.97731908655
 9757.5695823099413 7415.7594006558893 -999924.89535382495
 10020.629154306716 7399.0770864106889 -999922.41731527424
 10302.778409660204 7570.2684765742442 -999918.26855610241
 10532.578923379084 7939.5962014778152 -999913.01001306123
 10643.993012723362 8526.5324350421215 -999906.99750395759
 10569.845325128636 9349.3153806329592 -999900.42937870382
 10219.5637524184 10423.60500080679 -999893.44881117076
 9460.6949930561586 11780.600472741458 -999885.84983624495
 8139.2338925142058 13476.881978691008 -999876.05558077816
 6102.7436916677852 15583.305392311393 -999859.94874906563
 3241.9194138256248 18169.62200312292 -999829.66289002355
 -312.6703531367088 21177.182792000589 -999775.68942550535
 -3951.3408852541738 24152.140521807371 -999700.48565228947
 -6426.9503645038458 25978.414737484483 -999641.84400050982
 0 -0 0
 0 0 0
 0 -0 -0
 0 -0 0
 0 -0 -0
 -0 -0 0
 0 -0 -0
 0 -0 0
 0 0 -0
 29138.276686256271 24164.986248377438 -999283.2502705981
 25946.25568052669 21838.672647930245 -999424.76664986508
 21845.407146494006 18602.631211885255 -999588.27539072209
 18021.525704397616 15546.639201576954 -999716.72318753449
 14913.684970498463 13022.881782133214 -999803.97406226036
 12599.052376865255 11035.458443715164 -999859.73143043509
 10993.099290348189 9490.0398208748084 -999894.53989517852
 9961.0076982245337 8290.2901060312997 -999916.02118157584
 9374.9415300412275 7366.5203980035431 -999928.91989807657
 9127.498249528182 6674.3968712374663 -999936.0685574403
 9135.5949879923246 6186.7820829912453 -999939.1304632863
 9336.4079685093548 5883.9852781487971 -999939.10324753902
 9675.1630722097871 5748.7317194292109 -999936.66964620526
 10096.03131951163 5768.3316355209427 -999932.39596571622
 10540.100885507594 5938.3454141347911 -999926.81848576572
 10946.9607370636 6263.482256205888 -999920.46325727692
 11255.034617259062 6755.3790325918953 -999913.84081324236
 11396.885183866658 7430.0243156035267 -999907.4485905061
 11289.365077096283 8309.7364437200758 -999901.74443111767
 10825.955310083715 9431.7440401728491 -999896.91513474763
 9880.3165308006301 10855.50028513185 -999892.26292576687
 8316.3435458408658 12663.163335085781 -999885.23477665987
 6014.3386028158984 14948.515301866686 -999870.17638363456
 2943.1470574095583 17760.126404259885 -999837.94476680225
 -732.0719708361388 20972.641025345569 -999779.78195153119
 -4464.9540810488961 24059.117398099203 -999700.56669738796
 -7080.213303215789 25874.143223685001 -999640.13489456358
 0 -0 0
 0 -0 0
 0 0 -0
 0 0 -0
 0 0 -0
 0 -0 0
 -0 0 -0
 31158.530323305535 23682.730290007999 -999233.84363926644
 27529.725354431142 21491.69276900803 -999389.92458591075
 23078.722182843008 18251.245277569233 -999567.03858631977
 18968.124928567082 15099.809729381415 -999706.05979099206
 15591.606930875538 12451.174156849464 -999800.91521033773
 13004.362602345147 10361.129404467007 -999861.7572198523
 11137.932678534642 8755.506561676666 -999899.63874405751
 9880.8906031008719 7532.9867625377401 -999922.80807636597
 9116.4243771670826 6605.7288364014294 -999936.62556839839
 8740.9446935810101 5910.1965315259495 -999944.33118190267
 8668.6242261656389 5404.400010324146 -999947.82234602293
 8830.3416487078648 5061.3990646399761 -999948.20231143769
 9169.4011474402796 4862.9009940632823 -999946.13568757742
 9635.0934104868793 4795.4643639982132 -999942.08257103816
 10177.523685768369 4850.0282188259398 -999936.44559937017
 10745.336576956408 5022.8545138761374 -999929.65186275996
 11285.213493024454 5316.0067107250206 -999922.18898725719
 11740.975837710455 5737.0544318152988 -999914.6142010449
 12050.642037462674 6299.1818365597319 -999907.54689354892
 12141.574696655454 7023.5139738117159 -999901.62136849505
 11926.284288488188 7944.0619719963333 -999897.32253989717
 11301.740563761552 9112.7135564975306 -999894.60900230228
 10152.465475136403 10601.130285393749 -999892.26593740995
 8360.950682433855 12494.750129111015 -999886.98147485475
 5832.4613980580925 14866.798371007339 -999872.47221845028
 2537.6874539817231 17719.60616047083 -999839.77501392877
 -1395.3715601071435 20870.58486353467 -999781.21187871054
 -5467.4492079026586 23743.99263682841 -999703.12083779217
 -8523.3316231445224 25174.571956608157 -999646.73447415582
 0 0 0
 0 0 0
 -0 0 0
 0 -0 0
 -0 0 -0
 34419.985998772063 22101.472884204835 -999163.04448282765
 30043.478178365654 20716.917081724871 -999333.87752321048
 24911.115287540215 17866.775571786442 -999529.99688143341
 20291.511592155919 14855.187871296002 -999683.73896478594
 16535.495432387896 12221.077506115835 -999788.58898038801
 13641.948583811039 10094.654690898593 -999855.98722291389
 11508.03826294691 8446.3746189038666 -999898.10671444691
 10012.930748967869 7195.5156221098041 -999923.97999685374
 9042.2926360848633 6257.0813888816801 -999939.54111054924
 8495.9250726852479 5560.3085577131396 -999948.44978423882
 8289.8439428673446 5053.0662345756491 -999952.871393963
 8354.8477346718773 4699.5637255534039 -999954.05425455421
 8633.4337835094848 4475.9407594167742 -999952.71376971807
 9075.94221217415 4366.0575790023131 -999949.28112088668
 9636.5214194979726 4358.7054037963408 -999944.06800687313
 10269.974875934722 4446.5364448889377 -999937.37600396341
 10930.007222902828 4626.0305405785521 -999929.56491122162
 11568.384234282372 4897.7330137191339 -999921.089235313
 12134.016548756839 5266.55552120635 -999912.51069047884
 12571.170898437471 5742.585543206872 -999904.48962564499
 12816.763199406429 6343.0215980225676 -999897.74310081196
 12797.522564413071 7095.2766456619656 -999892.93450125714
 12427.934341063989 8040.1722623872529 -999890.44503785775
 11609.313199239681 9233.4514384347203 -999889.97755831899
 10230.939276693296 10742.711361785969 -999889.95496210176
 8175.046704118472 12634.680301807397 -999886.76032091584
 5329.191584149713 14946.089384009838 -999874.09913907887
 1622.8966446080017 17624.801904869659 -999843.35401316488
 -2864.2425885195025 20410.445456893049 -999787.58235469472
 -7632.3715640589244 22613.564978696635 -999715.1462207936
 -11340.908478180854 22981.507980455986 -999671.56310752069
 0 0 0
 -0 -0 -0
 0 -0 -0
 0 0 -0
 32835.781055866639 19149.879853768023 -999277.28563399136
 27666.942199807079 17129.427156525697 -999470.42129049613
 22327.107755069272 14526.264904807249 -999645.18099534162
 17964.509771659657 12073.740410112365 -999765.72314776492
 14624.656828850806 10013.507459368428 -999842.91220221156
 12152.967085999018 8378.3138871014235 -999891.04868851369
 10385.214201022805 7122.8164775873574 -999920.7032617263
 9183.9258020284724 6179.7159717381974 -999938.73143176688
 8439.6065426785735 5483.7527130289054 -999949.34946605528
 8065.4718539140849 4980.9746418994373 -999955.06801825389
 7992.100072602886 4630.6910534458893 -999957.34060848679
 8162.690706041014 4403.8938556373578 -999956.98717462143
 8528.9369747058554 4280.4602196520837 -999954.46641054086
 9047.4807299794666 4246.4391980410956 -999950.05417599611
 9677.0047522326822 4292.1072645940658 -999943.96512717393
 10376.170636465185 4410.9602265314697 -999936.43723628914
 11102.436220586706 4599.4215692097696 -999927.78800831235
 11811.431912705128 4856.9452341209599 -999918.44675411645
 12456.354748681762 5186.4119402395836 -999908.96603518922
 12986.910231670259 5594.9452973027337 -999900.01337621466
 13347.61213129862 6095.3529838066343 -999892.33816566225
 13475.540905935943 6708.120526250209 -999886.69903959509
 13297.677619297858 7463.4383109957762 -999883.7276696281
 12727.717167325434 8402.2633720349986 -999883.69682975393
 11662.247107560988 9574.8529803950205 -999886.15061056125
 9976.5131402320712 11034.307666864031 -999889.35049828165
 7521.8617518148221 12821.444818816737 -999889.50997024879
 4135.1793857540952 14933.793753751108 -999879.93383984279
 -303.61309864797067 17263.615729846999 -999850.92658406741
 -5637.2921979536522 19481.247237369105 -999794.3298212646
 -10524.012510772596 20890.752666566972 -999726.37337108271
 -0 0 -0
 -0 -0 -0
 0 0 -0
 37100.559909710522 17490.837207652723 -999158.45543545368
 31803.694418840401 16342.309122002051 -999360.52251120738
 25527.540985547959 14105.54612295289 -999574.59862673783
 20212.349447661563 11885.246777257733 -999725.06312428194
 16165.508430578984 9963.5025410399576 -999819.68622061808
 13194.520564803091 8400.9220102547188 -999877.65708432696
 11063.353912797367 7180.00527488445 -999913.02107955993
 9581.2329311241065 6253.9481114363025 -999934.54191188887
 8606.9686298447177 5569.5824307351786 -999947.44854044798
 8037.4857786742959 5078.0498699181489 -999954.80509464839
 7796.2401262257381 4738.9915540301636 -999958.37943333667
 7824.3317669401231 4521.2338404861421 -999959.16830486665
 8074.0330360156295 4401.7056279518074 -999957.71659510583
 8504.0910403469152 4363.6965878814881 -999954.31825042202
 9076.3392151824264 4395.1565920644507 -999949.15003963187
 9753.3515533876234 4487.4017352922829 -999942.36601873324
 10496.989833834496 4634.3555470212304 -999934.1658094757
 11267.670060950179 4832.2481439453313 -999924.84167024924
 12024.049859787141 5079.6623500569958 -999914.80599868053
 12722.760085634487 5377.8588648157647 -999904.60045438015
 13317.816320704569 5731.4256352156244 -999894.88774002437
 13759.44666289077 6149.2877636413341 -999886.42549418123
 13992.142871015327 6646.0234128131551 -999880.01795749168
 13951.701586257217 7243.1970053655696 -999876.43542589294
 13560.85191205642 7970.209246712373 -999876.28187690442
 12722.933432019439 8863.872277985236 -999879.77213919291
 11313.252024007894 9965.6049006816156 -999886.34206473944
 9169.1932549743578 11314.623425084003 -999893.94697227853
 6086.0886591976514 12934.422855709588 -999897.82489523489
 1846.0458926080264 14807.528814478108 -999888.65840401
 -3622.9705610772608 16825.129409431658 -999851.88358309853
 -9658.8018406694446 18626.853364215298 -999779.84970729984
 -14046.656894419442 19023.137181740651 -999720.36674354842
 -0 -0 0
 0 0 -0
 35687.62789455922 15015.703205385054 -999250.17982110335
 29801.161209190213 13606.285352010553 -999463.23583686841
 23547.485566729541 11671.446535679623 -999654.58697454561
 18530.530859406368 9893.2667725081556 -999779.34700544644
 14822.205432852914 8425.9495778696819 -999854.64223546884
 12165.933793520237 7268.3886796398374 -999899.57524790114
 10304.646422117592 6383.6442238030895 -999926.52897527372
 9042.7175534796188 5727.6971576092265 -999942.70973117184
 8241.7958436574936 5258.3678404069879 -999952.2100425231
 7805.289418558159 4938.8182376095265 -999957.34185589547
 7664.4205620492567 4738.7141551403147 -999959.39979861374
 7767.8707116176392 4634.0948776223195 -999959.09183789731
 8074.5133304124029 4606.540831255993 -999956.79007447453
 8548.431988366463 4642.0851793540551 -999952.68655858305
 9155.6077808246901 4730.1692700751628 -999946.89876254927
 9861.8566780693782 4862.8346396112865 -999939.54648375069
 10631.721381392692 5034.2109718894917 -999930.80921649723
 11428.043101379539 5240.296631030521 -999920.96643789392
 12211.91589114825 5478.9763490297664 -999910.42095201428
 12942.69042800054 5750.2630112975248 -999899.70559040888
 13577.702048393528 6056.7584778568917 -999889.47473399574
 14071.410918431513 6404.3550367395101 -999880.48267346818
 14373.64318888878 6803.1239824410195 -999873.54994797101
 14426.53982723505 7268.274284713033 -999869.51505560731
 14159.677250459126 7820.9417703386707 -999869.15964539465
 13482.685805370946 8488.507308842105 -999873.07315835904
 12274.841054215789 9304.0287430188309 -999881.37462713174
 10372.370196909196 10304.197838749638 -999893.1130092846
 7559.2070271621915 11524.352136496884 -999905.0193378143
 3583.4487924870659 12985.236723607828 -999909.26714476629
 -1727.8911340061052 14649.226203198707 -999891.20136336656
 -8056.1402773743112 16269.198686831163 -999835.19230817235
 -13483.404202445266 17125.001390509995 -999762.43785135692
 0 0 0
 -0 -0 0
 34053.467112199964 12995.315020168739 -999335.52081628959
 28000.12959010385 11461.814007807752 -999542.20499315998
 21958.771246453329 9818.7769279095319 -999710.66013371362
 17265.574585761562 8428.5153587903933 -999815.41299535392
 13862.525372147984 7334.1484899914485 -999877.01276518672
 11465.654508654683 6502.1601667397872 -999913.12656643044
 9816.5183175981565 5888.658539389724 -999934.47768777667
 8723.5892536594274 5453.6874910426377 -999947.07674120599
 8054.0217986091193 5163.2084052508508 -999954.23595874198
 7717.1842643855443 4988.8584419906429 -999957.77728785877
 7650.2236491639069 4907.3938419781889 -999958.69492884423
 7807.323204166466 4900.0416032086541 -999957.51674592262
 8152.1758183262154 4951.7992460617224 -999954.5098221486
 8652.9023579732693 5050.7364993986776 -999949.80741115054
 9278.7805674803294 5187.3859973595727 -999943.49603249808
 9998.325770704736 5354.2724090053207 -999935.68055588112
 10778.367095654112 5545.616686718713 -999926.53377051419
 11583.81196780043 5757.2006936372973 -999916.33147002244
 12377.787222109242 5986.3901806615522 -999905.47229030041
 13121.844177686162 6232.2972348286585 -999894.48227128107
 13775.902190235811 6496.1016059340873 -999884.00586406572
 14297.604037090332 6781.5249016445396 -999874.78688024101
 14640.714680293646 7095.4602489019971 -999867.64319959201
 14752.119735189859 7448.7030383031124 -999863.43656839745
 14566.848210353208 7856.7346368086392 -999863.02994663396
 14000.447703505331 8340.4876614391633 -999867.2030473199
 12938.183635945859 8927.0735903476143 -999876.44774807827
 11221.597878442304 9650.3662972165985 -999890.46708696266
 8636.807721112431 10550.730255788378 -999907.03950090182
 4920.8632291445201 11670.231015598045 -999919.79218991485
 -161.28425423218371 13029.697211743724 -999915.09688471025
 -6494.1908703445015 14550.228035754339 -999873.05011638685
 -12401.311309033699 15841.809093956215 -999797.60179870774
 -0 0 -0
 39973.893086196935 12864.230571974436 -999117.91068087856
 33872.29713664142 11562.928995235592 -999359.27781741146
 26768.602839296716 9834.9112432492748 -999593.27549902478
 20810.201157774703 8422.9044231175376 -999747.9633431877
 16376.909602322132 7355.6448157073273 -999838.8326731578
 13223.579687516039 6568.5672321300972 -999890.98949073686
 11033.934024622989 6002.3200764608619 -999921.10911493411
 9549.9931521124017 5610.7611358721369 -999938.65661362978
 8586.0580451694841 5358.569370682575 -999948.78135909757
 8015.0517623809837 5218.0980615123408 -999954.26415304956
 7751.4191429758112 5167.1127908295803 -999956.60728187428
 7736.8061041844894 5187.3814015415228 -999956.6155116437
 7929.4062388741204 5263.7967819707828 -999954.70745436137
 8296.4541250981929 5383.7796969085666 -999951.09068650217
 8809.1492719691487 5536.8469500921874 -999945.86964242987
 9439.418264371543 5714.2873898465559 -999939.12029805942
 10158.058842915023 5908.9411291449642 -999930.946743462
 10933.907589592545 6115.0634550019959 -999921.5247526993
 11733.707152222561 6328.2787326673633 -999911.13255366241
 12522.367007555424 6545.6077758332867 -999900.16768844123
 13263.30068274652 6765.5857734420078 -999889.14970817708
 13918.52218992047 6988.4688579822314 -999878.71066598338
 14448.157330772568 7216.5581724122412 -999869.57751393225
 14808.991636402805 7454.6383005471371 -999862.55162123207
 14951.59365140738 7710.5533632647703 -999858.48859431874
 14815.457340578098 7995.9260418845133 -999858.27365208219
 14321.531845172218 8327.093537204586 -999862.76720299479
 13361.657252876777 8726.3723431478247 -999872.65016160195
 11785.288848713755 9223.8373795454354 -999888.0076242279
 9386.8307317834333 9859.601980035306 -999907.33353526727
 5905.5903163200719 10685.692317416773 -999925.46721378854
 1075.9095240919869 11763.337583504297 -999930.23071992001
 -5157.0645156246846 13136.327712469381 -999900.41583140288
 -11953.380262613255 14658.505397078667 -999821.10645846091
 -16841.88996395416 15314.216147740222 -999740.87919131434
 39239.739278585177 10384.803111412895 -999175.85975927487
 32732.901773519159 9490.7773373038162 -999419.07240507414
 25671.749067299668 8282.007861871276 -999636.1186179705
 19972.953712943112 7275.5763172025891 -999774.04802746966
 15793.165585041266 6538.1088968575195 -999853.90385438618
 12848.456871709257 6024.3365164591623 -999899.3071932554
 10823.077456528637 5684.3321521626658 -999925.27188903186
 9466.4243129082261 5479.575698701783 -999940.17874115345
 8599.7201300720462 5381.5485692384282 -999948.5405503033
 8101.2138879270788 5368.5050822477233 -999952.77362819668
 7889.4382057484045 5423.0536865474951 -999954.17257667903
 7909.3740466164936 5530.6822367753148 -999953.42559350561
 8122.1086733049269 5678.9297593820811 -999950.8893478153
 8497.4782527786465 5856.9483438745574 -999946.74309157126
 9009.0535215189284 6055.2749044933817 -999941.08356466552
 9630.9254990355621 6265.7264091683828 -999933.99079469102
 10335.871228883521 6481.3555013183932 -999925.57812909537
 11094.5475310127 6696.450897634686 -999916.03075481171
 11875.402277849986 6906.5570775231008 -999905.63269244274
 12644.992631785455 7108.5251309038904 -999894.78098038165
 13368.404362735188 7300.5894406117186 -999883.98684978148
 14009.446021016845 7482.5011568937189 -999873.86584439815
 14530.278159291549 7655.7244465027798 -999865.12135378167
 14890.087844120389 7823.7340624327571 -999858.52722738462
 15042.360120240282 7992.4276304827199 -999854.91372627881
 14930.208414566934 8170.7139627833021 -999855.15366478765
 14479.182961904458 8371.340225090913 -999860.12717959261
 13587.108425978129 8612.0898294337512 -999870.60282488063
 12111.245304568341 8917.4344814231208 -999886.89215302863
 9855.5106247199474 9320.4767225877767 -999907.99457949609
 6567.6032085036904 9863.7789355860368 -999929.78376144287
 1975.6895318018826 10593.002252975439 -999941.94079163531
 -4053.5001083531979 11519.193641355307 -999925.43587745819
 -11042.939304492069 12475.301832038431 -999861.20053521288
 -16815.193012310461 12896.23727729392 -999775.44296109129
 38589.126054361375 7907.7013889378122 -999223.87261769525
 31906.75186037676 7494.213978039963 -999462.75365446811
 24947.459153490574 6859.9743778536103 -999665.22648000519
 19462.810985858279 6293.1732789491152 -999790.77559187822
 15483.456524439722 5881.2966237527653 -999862.82705383119
 12699.628782044947 5618.5854432839305 -999903.57081391325
 10798.47155376402 5478.4682246942857 -999926.68701160979
 9536.3957321574835 5435.8727278857441 -999939.75240717665
 8740.404321948452 5470.8548159945021 -999946.83612673683
 8292.8321837977473 5567.6003766099338 -999950.11413590913
 8115.1269831292748 5712.9642023826973 -999950.75216436025
 8154.5456453437882 5895.4456558510337 -999949.37227133499
 8374.1577915287326 6104.6398992337909 -999946.30198475334
 8745.6689851477149 6331.0131587162778 -999941.71407456894
 9244.4762346229654 6565.876558290056 -999935.71239563625
 9846.4684497031285 6801.4518759008979 -999928.3910918067
 10526.179192339654 7030.9790812336241 -999919.8792327164
 11255.96829705356 7248.8169472018417 -999910.3748989515
 12005.926379000699 7450.5327080480165 -999900.16866392642
 12744.20811261332 7632.9649334835212 -999889.65541498945
 13437.483097948867 7794.2842989250867 -999879.33431002579
 14051.187551431052 7934.0556421976726 -999869.79896857636
 14549.226643660257 8053.340392163178 -999861.72229593806
 14892.746218600647 8154.8499535482688 -999855.84187536931
 15037.524600420591 8243.1977471102309 -999852.95046061336
 14929.469503664082 8325.2739934015262 -999853.88970252755
 14497.650733901544 8410.8096831601815 -999859.52833569131
 13644.402373309764 8513.1459407844213 -999870.66995190235
 12232.597850713146 8650.1257478056232 -999887.76313862822
 10072.124231710877 8844.4999479099679 -999910.15953141125
 6913.1290248062087 9121.765609422031 -999934.49887442798
 2468.8827405891557 9499.3294159479392 -999951.83251927735
 -3466.3646026148294 9953.1274302410711 -999944.45824295643
 -10606.807989399549 10350.80463291981 -999890.17220279097
 -16837.808016128954 10450.515704283342 -999803.61818845547
 38297.520290921449 5923.2105193370026 -999248.8256268854
 31552.293833320698 5823.8087019631566 -999485.13546028209
 24646.294790462012 5620.0571547309628 -999680.43649492285
 19283.460690569085 5432.8489839278345 -999799.29600681004
 15430.155658102172 5318.5079997676139 -999866.80301379296
 12752.919207285899 5285.9793685845243 -999904.70619644911
 10935.869198800632 5326.705112399356 -999926.01375177363
 9737.9351435206408 5428.7910448274451 -999937.84849206137
 8988.9723033554674 5581.127335190301 -999944.02313059417
 8573.4347341597331 5773.808200743495 -999946.57825091842
 8414.2790509630941 5997.6809662490978 -999946.61244042427
 8459.9759348508123 6243.944701927061 -999944.71945290116
 8674.7578705911092 6503.9804836775475 -999941.22167943174
 9031.5754999379551 6769.3930606679478 -999936.3009520052
 9507.2022681157614 7032.1776112340158 -999930.07834701973
 10079.025264533037 7284.9504322692319 -999922.66838336852
 10723.162909043542 7521.1761038875438 -999914.21916444413
 11413.598223386438 7735.3669867247763 -999904.94241861592
 12122.044610429259 7923.2223281872657 -999895.13379273948
 12818.250256162117 8081.7182763137653 -999885.18255351309
 13470.444054582707 8209.143292602872 -999875.57081037539
 14045.597928618559 8305.1129791817348 -999866.8642760549
 14509.163371167948 8370.570882999511 -999859.69901849795
 14823.891863192404 8407.8167808867784 -999854.76987760945
 14947.300146086109 8420.5714289944954 -999852.82526737498
 14827.261850917888 8414.1218726915813 -999854.66686869843
 14395.152158724371 8395.5500068972942 -999861.13752581098
 13556.005031781991 8374.0401614883249 -999873.04703094799
 12175.540764517997 8361.0781162463227 -999890.91834050859
 10065.381192401135 8369.9646781082592 -999914.3122251723
 6972.3300904147382 8413.0479978616495 -999940.30183631263
 2591.5113277430619 8493.4321303944525 -999960.57206256117
 -3331.6383892794256 8587.5258364480287 -999957.57639294432
 -10584.686485905513 8626.4595071164313 -999906.76995826326
 -17021.540009213186 8533.2317192960709 -999818.70913288067
 38390.984500879611 4247.8381059362509 -999253.76565739233
 31624.219863305214 4369.7761424966211 -999490.27697847143
 24731.641491933351 4498.2677289396397 -999684.00582211628
 19413.745001228639 4634.6532056545666 -999800.79340571165
 15615.701286200336 4789.8376394385114 -999866.59476588597
 12990.803116715055 4970.5174607289646 -999903.26181613945
 11217.986139292163 5178.6709695386598 -999923.66616355663