# OOMMF OVF 2.0
#
# Segment count: 1
#
# Begin: Segment
# Begin: Header
#
# Title: Oxs_TimeDriver::Magnetization
# Desc: Oxs vector field output
# Desc:  MIF source file: /mnt/gpfs/work/plgrid/groups/plggspinsym/MF/switching-obrazki/p-ap/Anisotropy.mif
# Desc:  Iteration: 14700, State id: 103050
# Desc:  Stage: 0, Stage iteration: 14700
# Desc:  Stage simulation time: 2.16317e-09 s
# Desc:  Total simulation time: 2.16317e-09 s
# meshunit: m
# meshtype: rectangular
# xbase: 1.0000000000000001e-09
# ybase: 1.0000000000000001e-09
# zbase: 3.4999999999999998e-10
# xnodes: 35
# ynodes: 35
# znodes: 5
# xstepsize: 2.0000000000000001e-09
# ystepsize: 2.0000000000000001e-09
# zstepsize: 6.9999999999999996e-10
# xmin: 0
# ymin: 0
# zmin: 0
# xmax: 7.0000000000000005e-08
# ymax: 7.0000000000000005e-08
# zmax: 3.4999999999999999e-09
# valuedim: 3
# valuelabels: Magnetization_x Magnetization_y Magnetization_z
# valueunits: A/m A/m A/m
#
# End: Header
#
# Begin: Data Text
 -0 0 -0
 0 0 -0
 -0 -0 0
 -0 0 0
 0 0 0
 -0 0 -0
 0 0 0
 0 -0 0
 -0 0 0
 0 0 0
 0 0 0
 -0 -0 0
 0 0 0
 -3460.2838862149915 -34687.229452642474 -999392.22657989815
 -547.89365316772205 -34966.244809345102 -999388.34370652819
 2395.7672782977138 -35359.437591315706 -999371.78791097272
 4742.095063881281 -35897.640356391013 -999344.22095254459
 6667.2365494631013 -36551.839204870841 -999309.51712046412
 8478.8252638331651 -37276.953768485284 -999269.00194086239
 10500.722743187713 -38026.111920801603 -999221.57184183004
 13007.846281442737 -38727.942793709248 -999165.12268097384
 15696.253794674472 -39208.265262958361 -999107.77174030768
 0 0 0
 -0 0 -0
 -0 0 -0
 -0 0 0
 0 -0 0
 -0 0 0
 -0 -0 0
 0 0 0
 0 -0 0
 0 -0 -0
 0 -0 0
 -0 -0 0
 0 0 -0
 -0 -0 -0
 -0 -0 -0
 -0 -0 -0
 -0 0 -0
 0 0 -0
 0 0 -0
 -0 -0 0
 0 0 0
 0 0 -0
 0 0 0
 -9733.1629145807437 -29216.586246673211 -999525.71584115271
 -7136.2068369279732 -29259.936992442148 -999546.36242606514
 -4987.5284604755216 -29025.441419498999 -999566.23007695633
 -2974.0464940153061 -29522.512025819145 -999559.69122966181
 -162.1948566243538 -29181.653439527076 -999574.11170726304
 2502.3624314689632 -29204.486469227617 -999570.32576619158
 4678.2537039206636 -29581.970336969844 -999551.40987007972
 6508.9853916575285 -30184.286921026916 -999523.15727662866
 8252.1763615119453 -30931.690827574104 -999487.43468232034
 10187.465443243824 -31804.030959499345 -999442.2040131035
 12564.363658059836 -32850.279185528605 -999381.30657087092
 15318.888068204427 -34143.146332630269 -999299.54329363233
 17572.294262715794 -35072.701046494047 -999230.26381092344
 19397.849525972761 -37040.938053295846 -999125.46376413596
 21583.647390902377 -38269.627383927334 -999034.32462813845
 -0 0 -0
 0 -0 0
 -0 0 -0
 0 -0 -0
 -0 0 0
 -0 0 0
 -0 0 -0
 -0 0 0
 -0 0 -0
 -0 0 0
 0 -0 -0
 -0 0 -0
 -0 0 0
 -0 0 0
 -0 -0 0
 0 0 -0
 0 -0 -0
 -0 -0 0
 -15929.478419283678 -23520.500548066368 -999596.43745426496
 -13054.940725560207 -23664.793365175014 -999634.70631908113
 -9749.9077020327841 -24152.708209350269 -999660.73544275807
 -6506.8052356734297 -23466.058431205183 -999703.45882533013
 -3919.2511989002769 -22735.73624695613 -999733.82745976362
 -1706.0154888210031 -22173.584747713325 -999752.68024176254
 592.2871380255973 -21685.507751341684 -999764.66628377745
 2739.4221296223345 -21612.736565202718 -999762.66442819266
 4589.5128274385534 -21927.610058522794 -999749.02665075311
 6219.0893854728465 -22515.086698355757 -999727.15967816988
 7798.09512907916 -23301.816116488018 -999698.06195572426
 9516.2292830244387 -24283.623879439736 -999659.81563305564
 11520.554453135874 -25535.915802633896 -999607.51989429002
 13771.917948382808 -27171.055876573359 -999535.92631709611
 15963.911198469572 -29093.315651856603 -999449.21457952447
 18237.141856260823 -31305.857134245281 -999343.45946026244
 21099.824616701299 -33346.790531165352 -999221.09113169485
 24141.725185869345 -34523.623210185498 -999112.25422646629
 26807.243497237239 -36016.841369791109 -998991.57095233956
 -0 0 -0
 -0 -0 -0
 0 0 -0
 -0 0 0
 -0 0 -0
 0 0 -0
 0 -0 -0
 -0 -0 -0
 -0 -0 0
 0 0 0
 0 0 0
 0 0 -0
 -0 0 0
 0 0 0
 -0 -0 -0
 -19471.141795554973 -18328.195400074565 -999642.41201069194
 -16142.715658417555 -18845.59752651977 -999692.08068536769
 -12106.06824535912 -18034.217784024848 -999764.07722049952
 -8443.3577210900712 -17137.467861873007 -999817.49179821648
 -5309.0220581556005 -16156.338857615297 -999855.3830427198
 -2788.4358849221039 -15381.182813401307 -999877.8144556348
 -701.65022660704358 -14851.158876901362 -999889.46927496558
 1187.9339570354264 -14568.883337138021 -999893.16251848754
 2898.3699353898437 -14624.614750069759 -999888.85387083376
 4420.4209772666973 -15001.229629028807 -999877.7040158466
 5813.9909875774219 -15632.966431338686 -999860.89425947284
 7186.5929075057911 -16472.113939733023 -999838.49813094235
 8655.3209622958566 -17516.144379182824 -999809.11683437217
 10305.628515315155 -18810.465894738507 -999769.95373622212
 12142.316066980429 -20412.14254263058 -999717.91451256303
 14118.328000535628 -22302.674936870673 -999651.57105119841
 16362.401856775274 -24440.694101040415 -999567.36855368409
 19117.503006392013 -26738.355041049479 -999459.64473234199
 22371.296740919854 -29059.922565892295 -999327.29672644986
 26093.422504378803 -31331.065298920032 -999168.40304787585
 29516.030918023262 -32216.883126863417 -999044.98215067189
 -0 -0 -0
 0 -0 0
 -0 0 -0
 -0 -0 -0
 0 -0 -0
 0 -0 -0
 0 0 -0
 0 -0 -0
 -0 0 -0
 0 0 -0
 -0 0 0
 -0 0 0
 -0 0 -0
 -21692.021818250669 -13378.033313451977 -999675.18945610558
 -18887.65587956144 -13672.52812294523 -999728.12225629727
 -14703.75050099928 -12580.085472523102 -999812.75305464491
 -10548.307481056958 -11221.292243193024 -999881.40087196243
 -7028.8598053785836 -10091.335492249993 -999924.37717950437
 -4183.1959396573129 -9220.3082552879132 -999948.74208001676
 -1921.0539869055124 -8640.7055212123614 -999960.82311242342
 -83.066540408656167 -8337.9680227220942 -999965.2350903016
 1488.5121231914036 -8298.9159264495265 -999964.45553134778
 2874.2415241349231 -8533.3255065757712 -999959.45972397283
 4122.9901946226018 -9023.3340320904317 -999950.78898653807
 5294.898092591543 -9732.4568337198143 -999938.61978531932
 6464.9818498228278 -10632.007794604686 -999922.57921297918
 7709.1794301506161 -11716.717139870525 -999901.6387085173
 9086.3142898876813 -13004.97060123019 -999874.14689664159
 10627.614948905939 -14520.072775228138 -999838.09753734618
 12364.780862347907 -16262.954276474937 -999791.29247679852
 14400.564669004714 -18228.195415980219 -999730.14190284885
 16889.848428828602 -20418.067807087882 -999648.85611252335
 19956.103834355024 -22840.196454145811 -999539.93384240975
 23705.094212345983 -25495.051287171907 -999393.85172625934
 27867.555863338654 -28047.876367357738 -999218.05225960829
 31139.454542854852 -29578.765935347066 -999077.28979119298
 0 -0 -0
 -0 0 -0
 0 0 0
 0 0 -0
 0 -0 0
 -0 0 0
 -0 0 0
 0 -0 0
 -0 -0 -0
 -0 -0 -0
 0 0 0
 -23134.489345720394 -8291.0957563379325 -999697.98095918563
 -20855.589758671045 -8706.8965225007523 -999744.58454585518
 -16991.720996724278 -7546.8693440567376 -999827.14815145568
 -12775.709380661945 -5995.0425776132306 -999900.41539861029
 -8969.274024850125 -4642.4676798850978 -999948.99850807805
 -5830.5035049863136 -3656.7721355685476 -999976.31634275569
 -3335.1990044271706 -3014.3987993192186 -999989.89487268275
 -1368.0720857651522 -2674.9779466680293 -999995.48642569035
 209.32610182046341 -2601.0555518371098 -999996.59534050373
 1522.0896176470321 -2767.832762258693 -999995.01116005378
 2659.5878616508971 -3162.2886717022729 -999991.46322494303
 3687.841478457367 -3767.0312183372275 -999986.10455397319
 4666.8767693408172 -4559.7552410242979 -999978.71422013862
 5656.2971058081012 -5522.0103255237327 -999968.75636442553
 6712.0530659885953 -6646.0813666671875 -999955.38797793724
 7881.3286221568469 -7935.1530209587372 -999937.45704703126
 9203.6111136819218 -9396.3564068376527 -999913.49727301113
 10727.169943879071 -11034.137609186402 -999881.58080455556
 12534.186850825248 -12858.460046475595 -999838.76408410061
 14739.962661079946 -14896.696337104346 -999780.38685452822
 17473.970884133931 -17199.905619201494 -999699.36660389614
 20860.23619797458 -19836.526070967961 -999585.59552406555
 24879.380885738836 -22796.739786082504 -999430.50036601734
 29094.448995909632 -25783.3934217155 -999244.07912245602
 32297.495419801162 -27720.752777408325 -999093.80523305305
 0 -0 0
 0 0 0
 0 -0 -0
 0 -0 0
 0 -0 -0
 -0 -0 0
 0 -0 -0
 0 -0 0
 0 0 -0
 -23920.528723949858 -2701.0770880077671 -999710.21425617684
 -22273.48885782521 -3499.5235370450628 -999745.79020324675
 -18876.184658502803 -2577.0649669020972 -999818.50772472424
 -14857.06870816714 -1073.3457624197324 -999889.05156436004
 -10997.017529425686 348.96931888929015 -999939.47008100047
 -7659.3635580811278 1439.7566239714104 -999969.63016421092
 -4938.3163713266749 2161.5580483093254 -999985.4702435534
 -2784.5338972664094 2558.5438410555648 -999992.85008663347
 -1094.0381956311257 2681.7698781987892 -999995.80558657693
 248.05146366159576 2570.2012755627707 -999996.66626238031
 1345.8434115949221 2248.6463725643052 -999996.56614160573
 2283.5412315357162 1732.3289559125944 -999995.89222947939
 3128.9423429416474 1034.5725657954124 -999994.56967496604
 3940.3571083309494 169.29364659589086 -999992.222432515
 4770.2994744401358 -850.99425964812804 -999988.25995693263
 5665.8355976540051 -2017.6685732049286 -999981.91349669371
 6668.5487541542907 -3326.4905917733099 -999972.23207339947
 7817.969290291936 -4776.2393337244121 -999958.0325663687
 9160.9254667065361 -6368.9069340250699 -999937.75529732823
 10762.888255860491 -8115.6698155783697 -999909.1439425064
 12711.595174304695 -10045.619033495974 -999868.74182882556
 15113.320809327415 -12212.960943783006 -999811.19773640274
 18080.279571251162 -14696.416178277628 -999728.5225710728
 21681.396678158337 -17566.796705091208 -999610.58652437583
 25846.760727386591 -20796.508282728973 -999449.57361697219
 30176.380224869466 -24018.064225421898 -999255.9825527129
 33518.576049560557 -26100.512916917032 -999097.22664267442
 0 -0 0
 0 -0 0
 0 0 -0
 0 0 -0
 0 0 -0
 0 -0 0
 -0 0 -0
 -23837.693706380891 3506.8016445283238 -999709.69121089682
 -23103.761972290773 2152.3234400184838 -999730.75559699454
 -20404.309207752773 2605.0926042273909 -999788.41644533852
 -16761.270404341569 3837.8187156868717 -999852.15455183084
 -13012.367053021995 5155.9227083050473 -999902.04258452414
 -9600.5340723854315 6244.7070258973145 -999934.41453911655
 -6705.8657065923235 7010.3880822013625 -999952.94180479413
 -4355.7295257051946 7462.1564898546794 -999962.67122369108
 -2497.2273899419033 7643.7608852365056 -999967.6678647626
 -1044.0797572803619 7597.7417673904183 -999970.59167632356
 97.299871432455888 7354.1350890543681 -999972.95324915019
 1014.4698736216814 6930.4703402079595 -999975.4694149947
 1783.6033270178029 6336.187414764524 -999978.33550943329
 2469.8664932049564 5577.8870943702423 -999981.39329442941
 3129.8473210658285 4662.3501410818981 -999984.23314915749
 3813.3734402144064 3597.1195817765793 -999986.25936245744
 4564.3946191619307 2389.95935529085 -999986.72710993537
 5422.1786220139193 1048.2207940220007 -999984.75048980501
 6424.409325328611 -421.98386579466728 -999979.27423244005
 7612.8337946785259 -2018.0806696696588 -999968.98557506525
 9039.7129017751231 -3745.9749099661935 -999952.12448528118
 10772.020711636742 -5626.533650723577 -999926.15011753025
 12892.580151204054 -7701.3882388373995 -999887.22863943002
 15496.555708299109 -10034.203023091713 -999829.57124245469
 18677.099931730925 -12698.564790488093 -999744.92366323201
 22496.291211005253 -15740.437919636439 -999623.00668594451
 26915.765548746709 -19083.70066754501 -999455.52874240314
 31588.309240233848 -22309.553910691557 -999251.95147352561
 35383.620164118664 -24252.104648391054 -999079.49375622987
 0 0 0
 0 0 0
 -0 0 0
 0 -0 0
 -0 0 -0
 -22240.164622777458 9942.825776070993 -999703.21360548737
 -23054.288251310947 8092.1608685546562 -999701.46380092029
 -21450.629103521973 7948.5903293477695 -999738.31097084563
 -18438.716269782712 8766.3947541905764 -999791.56030911568
 -14973.163826287264 9853.8510658245123 -999839.34008629818
 -11608.471896630841 10842.856048017684 -999873.82996703486
 -8613.9276087786347 11589.152686816647 -999895.7404605503
 -6089.612646465469 12066.005581445719 -999908.65989205451
 -4040.2180942177515 12297.040762813547 -999916.22620409005
 -2420.0091928583051 12318.508064814376 -999921.19585223496
 -1160.3913997785578 12160.635647628196 -999925.38343240635
 -185.8250143029062 11841.781277645361 -999929.86638325604
 577.63592335251792 11369.489799403204 -999935.19841959805
 1198.468352181088 10744.493758617155 -999941.55805600947
 1738.7045901430465 9965.1677551773464 -999948.83486004395
 2254.1647161462811 9030.8310703182124 -999956.68047751533
 2794.7772453062848 7943.4709593868902 -999964.5446160913
 3404.8741288768956 6708.1927975425833 -999971.70309042116
 4124.0224394037896 5332.7362342786018 -999977.27692341839
 4989.111626070021 3826.0398886387743 -999980.23489664693
 6037.8859772304477 2195.4954199778326 -999979.36165342259
 7313.2705042980051 442.73117014638927 -999973.15967161953
 8867.4304766558689 -1441.4092254657266 -999959.64469381794
 10765.136023885967 -3481.355139585603 -999935.99395800289
 13086.001262095911 -5718.5695753880391 -999898.02206674055
 15924.66843798616 -8206.785571214954 -999839.5139249739
 19387.658142913759 -10995.143091272981 -999751.58191429544
 23576.282629552137 -14086.544139640009 -999622.79294320487
 28513.866658302071 -17338.783580404775 -999443.00787595916
 33900.294677741244 -20224.725652041103 -999220.56148433115
 38479.511814209487 -21441.992812215245 -999029.31294070696
 0 0 0
 -0 -0 -0
 0 -0 -0
 0 0 -0
 -21696.910873244524 12886.209712984743 -999681.54412182246
 -21656.213985307721 12783.975528357216 -999683.73917230067
 -19656.40822386885 13337.853401337417 -999717.82382949488
 -16732.613024174574 14215.994303640138 -999758.93352714879
 -13588.992116701738 15092.263836983288 -999793.76016532897
 -10606.181496671472 15799.941181167711 -999818.91899119981
 -7966.748550673693 16286.566598959333 -999835.6258235391
 -5738.4151273338884 16558.876354167754 -999846.42531026423
 -3923.7165855818912 16645.48855580579 -999853.75538570352
 -2489.3689689431794 16575.648150834666 -999859.51559732424
 -1383.7327977193061 16369.216770588328 -999865.05790824699
 -546.98748632953777 16034.133722895618 -999871.29539778549
 83.137599466641873 15568.234271873875 -999878.80424069182
 568.27749596953549 14963.102735313658 -999887.8850237258
 967.82074023681594 14208.33922641724 -999898.588067531
 1337.8979266067024 13295.174122389766 -999910.72020165564
 1730.5271162931981 12218.935732149264 -999923.8485432145
 2192.9427488074016 10980.257358461293 -999937.31051023502
 2767.4980924941842 9585.0442361629139 -999950.23270225734
 3492.5538657572488 8043.1897170250377 -999961.55384428194
 4404.5544872994042 6366.0322875050933 -999970.0363174302
 5541.1143626846733 4562.731501549837 -999974.2384346032
 6944.8435065309541 2636.1229710126449 -999972.4096215613
 8667.8409425492173 578.9595829251291 -999962.26595766901
 10777.059133459199 -1628.1651245836686 -999940.60027321684
 13360.836136195834 -4015.3552157545332 -999902.6777543067
 16536.308251031147 -6615.6235589099851 -999841.37943693541
 20451.862847881195 -9444.8120840135816 -999746.22621480748
 25256.941899175981 -12454.100694654804 -999603.41249006812
 30919.286470629562 -15415.360920296462 -999403.00398380042
 36307.095022611247 -17649.073021652443 -999184.82027725747
 -0 0 -0
 -0 -0 -0
 0 0 -0
 -14687.012016801276 17161.668519016272 -999744.85185554309
 -18887.645420473887 16290.067690245556 -999688.89687998313
 -19453.503042549724 16780.701408450848 -999669.9301667593
 -17792.641546556049 17678.654017254979 -999685.3940610186
 -15248.10580909125 18583.357975394731 -999711.03528749419
 -12501.063566404315 19335.881926427788 -999734.88839783717
 -9881.510729598529 19883.005530105082 -999753.48053247144
 -7545.1988118164572 20227.770402903981 -999766.92647807545
 -5555.6393686816355 20398.283228506789 -999776.49747957883
 -3924.9273263450282 20427.261935431288 -999783.63755129743
 -2635.6019435316935 20340.313116320336 -999789.64050680469
 -1652.8745377027403 20150.776603135462 -999795.58621152793
 -931.59366036270239 19859.168047542873 -999802.35325673816
 -420.312097298688 19455.51556927069 -999810.63519632281
 -63.837799756221159 18923.217841132078 -999820.93784400832
 194.86723606109686 18243.355966910691 -999833.55714330019
 412.93880820880952 17398.67965614362 -999848.54624476179
 645.82451501739024 16376.752768459786 -999865.68341925635
 945.60866150763525 15171.958800259425 -999884.45206954924
 1359.7891162983592 13786.197013207096 -999904.04126869712
 1930.9192421958273 12228.20401391944 -999923.36835253239
 2697.3948554699409 10511.558788217268 -999941.11386262905
 3695.5324701134523 8651.6287668819568 -999955.74520047742
 4962.9918776424993 6661.944622797485 -999965.49300736643
 6543.7371229666178 4550.6862959221799 -999968.23487483931
 8494.9195147394639 2318.1047874892024 -999961.23061478348
 10896.309370116182 -44.139574513289624 -999940.63248465327
 13862.544199638503 -2550.4212030066969 -999900.65767555137
 17555.556837125019 -5212.9257825781096 -999832.29985279217
 22182.26678796007 -8021.9392711126175 -999721.75905622775
 27912.03582506075 -10896.952204231053 -999550.98653783498
 34440.42196152301 -13517.461759551068 -999315.33339716704
 39817.433913743473 -14596.294426280092 -999100.35539256304
 -0 -0 0
 0 0 -0
 -13416.658971799181 18259.906463456431 -999743.25157911424
 -16514.411976524359 18628.551120407577 -999690.07761416957
 -17129.644585073609 19611.262978905143 -999660.92933592293
 -15924.247981420947 20737.00186251539 -999658.13910555432
 -13871.483735704991 21716.120641954232 -999667.94088999066
 -11556.905565293215 22463.255524199147 -999680.86912024568
 -9288.8835918631321 22980.695915567219 -999692.75492865965
 -7224.1695384169925 23303.471081884563 -999702.33550293162
 -5437.7247423448707 23474.45558257015 -999709.6483903355
 -3958.3003686498437 23531.250565433569 -999715.26551564608
 -2786.7296013406726 23499.344834988271 -999719.96825633908
 -1905.5591812778323 23389.534033229043 -999724.61135150364
 -1284.2764478822469 23198.388009178285 -999730.05627908453
 -882.35400691245093 22910.80362439045 -999737.12371237425
 -651.37641859219832 22503.815981355765 -999746.54486776725
 -536.97830534119043 21950.96653999608 -999758.90429756104
 -480.99338231445063 21226.631037546256 -999774.57398163597
 -423.90037561306036 20309.820137853876 -999793.64446591656
 -307.405162172735 19187.057223897737 -999815.86421558296
 -76.781397991418231 17854.038075619661 -999840.60101048672
 317.47472638553774 16315.892568906002 -999866.83656348858
 919.12459333559957 14586.035231060763 -999893.19568952988
 1767.1464982935267 12683.790739004869 -999917.99596054014
 2898.485748605905 10631.185238268232 -999939.28649733274
 4352.9034370850231 8449.4360943343418 -999954.82861045061
 6180.3774014225082 6155.7347368702958 -999961.9542087717
 8451.6070842451081 3760.9048138079061 -999957.21205093339
 11271.927027470962 1268.5423691478154 -999935.6651611866
 14796.735039119007 -1323.3050746103352 -999889.64665900066
 19237.237984049196 -4014.4534899827481 -999806.8877727947
 24808.572927774407 -6773.4358428367213 -999669.27294789359
 31434.982845780349 -9417.2433699668763 -999461.43366354867
 37567.649884617269 -11242.568456852841 -999230.84236658725
 0 0 0
 -0 -0 0
 -10400.505630403175 18718.073103581264 -999770.70532293594
 -13557.510521778562 19697.261434807275 -999714.06502080418
 -14595.165604016729 21095.28219552325 -999670.93096182519
 -13974.763088261139 22456.655904175503 -999650.14110048942
 -12474.065581715246 23581.316619035857 -999644.09626345313
 -10612.790909217929 24428.676269180563 -999645.24129555735
 -8693.7551361576352 25028.074330370073 -999648.9454388204
 -6887.140419769069 25431.416029325424 -999652.84492946952
 -5286.9191289563487 25691.201547718876 -999655.94613804913
 -3942.2076051720205 25850.060868239183 -999658.05821406038
 -2873.6362132007303 25935.853800578181 -999659.4788739559
 -2081.6981488250099 25960.086321842282 -999660.81270147813
 -1551.0173692306366 25918.640546273935 -999662.85237441608
 -1252.7189257453419 25794.18116499616 -999666.48984214757
 -1146.1355959638688 25559.725935633662 -999672.63980929821
 -1180.5850338635787 25182.910693185138 -999682.16310385207
 -1297.6026863364011 24630.507462148224 -999695.78089007933
 -1433.7572315864275 23872.761816226728 -999713.97688712273
 -1523.9033552422495 22887.132377624785 -999736.89383261895
 -1504.5285821626899 21661.044443893061 -999764.2399822796
 -1316.6779653475164 20193.350925638402 -999795.22650267219
 -907.89554419244848 18494.329621111199 -999828.55305174517
 -232.60819603623764 16584.239815122521 -999862.44498089934
 749.54635628079086 14490.665540543987 -999894.72385469254
 2077.9255280444986 12245.041794223493 -999922.86761377635
 3798.067331700021 9878.8390056186108 -999943.99004366493
 5972.31248474109 7419.8603906876915 -999954.63754880766
 8693.9564596387772 4889.0369635520101 -999950.25498204003
 12103.233773704491 2298.2737442307507 -999924.1119555101
 16396.155570515351 -348.55478950112109 -999865.51325269043
 21789.968280137644 -3041.9000120539699 -999757.94276748179
 28297.599017618497 -5701.5120546376174 -999583.28249832639
 34616.163022705492 -7911.9549642114735 -999369.36226113606
 -0 0 -0
 4024.7370834105341 17073.988624813428 -999846.12836368417
 -4630.8249517538325 17985.03646665574 -999827.53208918939
 -9742.169405594921 19521.354610433737 -999761.97509679582
 -11749.366934450265 21297.421062325702 -999704.14235049242
 -11863.112610265724 22918.431021349221 -999666.95057839947
 -10955.460442722018 24245.170379017582 -999646.01214618993
 -9559.0417319643202 25266.78285987132 -999635.04060485936
 -7990.6066719530654 26026.423191600079 -999629.31904824893
 -6439.719121696291 26583.89498363555 -999625.84327593935
 -5021.7307973207016 26997.11383868683 -999622.89792910428
 -3807.0362623884666 27312.912139996355 -999619.68333228095
 -2836.3617178456902 27562.658213218227 -999616.0537548539
 -2128.3817441091091 27760.72258887544 -999612.33099261788
 -1683.3830340456802 27904.909302984477 -999609.16475308128
 -1485.0975959391524 27978.377547851265 -999607.42538004427
 -1501.9551452550522 27952.708271173873 -999608.11832990265
 -1688.4985601131013 27791.81232571794 -999612.30691716901
 -1987.4146392338641 27456.367587189732 -999621.02722080075
 -2332.3690069325417 26908.446479804152 -999635.18123506382
 -2651.6129720441882 26115.949085766926 -999655.40370269411
 -2872.07237615351 25056.425009172654 -999681.91279327753
 -2923.4318415812486 23719.866654209505 -999714.3699438225
 -2741.5434024143619 22110.124888186849 -999751.7823526006
 -2270.4262490090682 20244.738127636698 -999792.47633836081
 -1462.1039950509946 18153.168096155216 -999834.14861664944
 -273.61918100645488 15873.650035268132 -999873.96824154886
 1339.353262168506 13449.036971622214 -999908.66059724428
 3432.7047831396758 10922.09414184536 -999934.46005097171
 6087.9870669965931 8330.6854279649961 -999946.76662999042
 9429.2124587561157 5703.3188960543603 -999939.27920948155
 13636.824673363981 3056.0327010749857 -999902.34407013864
 18938.284818309952 393.94576395878664 -999820.5769911299
 25499.581380474669 -2268.6206327313284 -999672.2586477258
 32933.649843501989 -4778.6044353850402 -999446.11643031344
 39082.063641934896 -6133.334516136295 -999217.18085169094
 5906.8924608197231 15450.188170111247 -999863.19079510297
 -1062.7601099808912 16648.03377294762 -999860.84707445349
 -6260.3313215555472 18490.609476229405 -999809.43464889459
 -8858.3923532848548 20502.201856871179 -999750.56319260749
 -9617.7531674783822 22338.696565795759 -999704.19698016206
 -9275.2216570236851 23873.06242998919 -999671.96977479907
 -8333.3888763752457 25097.212147661787 -999650.28113448259
 -7112.8337089793431 26054.332249030042 -999635.2231527688
 -5818.5588744730439 26804.284245695369 -999623.76658355829
 -4585.0316347512962 27406.117013292336 -999613.86656806734
 -3502.3854049007809 27909.017534757102 -999604.33174167457
 -2630.4145915901377 28347.679313356741 -999594.66284920881
 -2005.4941029477941 28740.283536911898 -999584.90089417656
 -1643.7070021880006 29088.282315964032 -999575.49492732063
 -1542.1767861634819 29377.576124695745 -999567.19619633281
 -1679.8009812883713 29580.837921294053 -999560.97977889131
 -2018.1539028678083 29660.78528912305 -999557.98474668618
 -2503.0439492868913 29574.209088518157 -999559.45342324523
 -3067.0281292131394 29276.531670223634 -999566.64511768136
 -3632.9653040075591 28726.605517873319 -999580.70394466922
 -4118.4762093776262 27891.375462201861 -999602.47565146571
 -4440.8987574575167 26749.947764649158 -999632.29175172956
 -4522.0902035759391 25296.569445226261 -999669.76260887936
 -4292.1987050354246 23542.064835588171 -999713.63310377731
 -3691.4380481264479 21513.423702980359 -999761.74456002936
 -2668.896449314806 19251.476633209659 -999811.11098006088
 -1177.5764890767186 16806.87693898959 -999858.06102724886
 834.90479993396116 14234.860455132743 -999898.33067257283
 3440.0771227213868 11589.431504337444 -999926.92280325969
 6745.95545348422 8917.803822707554 -999937.48047565436
 10913.785715881031 6256.5229085140818 -999920.8694704012
 16158.611328714745 3633.217341587801 -999862.840099419
 22676.616202259862 1088.9612974281824 -999742.25940534717
 30295.84384012585 -1217.7649777049712 -999540.2337547366
 37191.905784808143 -2711.2400471493743 -999304.46377543057
 8875.7250450146876 13392.766966748241 -999870.91931803874
 2336.4328376364515 14841.009650118163 -999887.13638798264
 -2933.4400805804744 16860.171560936698 -999853.55404890666
 -5965.7688695236675 19001.713917319594 -999801.65256414737
 -7265.9975010358539 20985.893834936662 -999753.3683565479
 -7432.3189448774101 22693.092400646907 -999714.85144134832
 -6917.7002415689267 24106.190706640053 -999685.46903162636
 -6034.152861409013 25259.08051522759 -999662.72704886342
 -4994.7518924455726 26205.382912923196 -999644.10184821277
 -3948.3732181886812 27001.191108300649 -999627.60367431957
 -3001.6908535419238 27695.595943163342 -999611.8965965606
 -2231.39969557316 28325.447836360931 -999596.2634285246
 -1690.2591514932139 28912.630022957193 -999580.51344009105
 -1409.6487878649107 29463.03991192922 -999564.87641845585
 -1400.3806806974349 29966.896961333623 -999549.91072004905
 -1652.8867345414089 30400.169863127732 -999536.44137556897
 -2137.5006209099038 30726.99503705998 -999525.52887211845
 -2805.357432741082 30902.985809299669 -999518.45177452569
 -3590.2725411968036 30879.326305291186 -999516.67177191738
 -4411.8397516483901 30607.491483195812 -999521.74420325249
 -5179.7805339628057 30044.333654365309 -999535.14589977532
 -5799.3378754942269 29157.133319560999 -999558.01695388916
 -6177.1662229277408 27928.063907251468 -999590.84922974685
 -6226.8492979066214 26357.426292471468 -999633.18893835146
 -5872.8770240756194 24465.036376695782 -999683.43554874777
 -5051.8030705879619 22289.346875125131 -999738.79803757556
 -3709.3688347297489 19884.23993363254 -999795.40786358365
 -1792.7142965391317 17313.871342596321 -999848.49654064258
 762.66523910773697 14646.384333268043 -999892.44509981922
 4050.4942816343191 11947.764230990682 -999920.41904641327
 8212.3764735824425 9277.9727930020199 -999923.23510032916
 13444.914779642009 6694.236684288885 -999887.20436946454
 19949.239471517612 4274.7746076051108 -999791.85541119613
 27642.786862640369 2193.3709833632911 -999615.45879312803
 34841.70506807213 854.59202511638932 -999392.47808877355
 12359.960653037488 11197.041143266275 -999860.91914940416
 5843.1841228502599 12736.346019599616 -999901.81652469037
 359.1971902584512 14832.901365660658 -999889.92194863886
 -3069.0620523919488 17040.367396979091 -999850.09213236289
 -4835.6172975740756 19115.336965191047 -999805.59145168739
 -5452.0657578933369 20947.132628105843 -999765.7188629905
 -5328.2814947813649 22511.215469497798 -999732.39149004163
 -4762.8887879475924 23830.76877274716 -999704.66106250288
 -3971.1316644737685 24950.588344546042 -999680.79818238213
 -3111.3462493587349 25921.189222565114 -999659.14764673915
 -2302.898893026821 26789.383566143151 -999638.44743228774
 -1636.4928804751044 27592.643121898298 -999617.91097228741
 -1179.2490172871294 28355.765260831926 -999597.19884973043
 -976.65213408911234 29089.115421558796 -999576.34501552721
 -1052.8600946925208 29788.092285133345 -999555.68181249104
 -1410.347439879577 30433.637076766187 -999535.7945838552
 -2029.5559521077707 30993.695041495215 -999517.51949143549
 -2869.0336605321504 31425.592773307893 -999501.97636858176
 -3866.4803306941817 31679.325253902774 -999490.60559932713
 -4941.0299098208479 31701.73479159303 -999485.1605875066
 -5997.0132249754051 31441.488120233305 -999487.60305326688
 -6929.2196196531577 30854.599077989755 -999499.86474796431
 -7629.3693224117605 29910.021364940269 -999523.4781363022
 -7993.0485261512731 28594.599252203236 -999559.13285251136
 -7925.9061864258538 26916.521112482995 -999606.26293672505
 -7347.5228807887133 24906.475993954082 -999662.78382316453
 -6191.2740360749995 22616.044666705297 -999725.05352694041
 -4398.756108463549 20113.427175134297 -999788.02802992624
 -1908.0390595800798 17477.303836452062 -999845.43967433041
 1363.8033533193777 14790.324755196958 -999889.6870825548
 5540.8563793510675 12134.572970710849 -999911.02156612009
 10800.443332377146 9593.1476668240921 -999895.65552694874
 17336.228408965697 7266.4632276863877 -999823.31123889727
 25094.329084973004 5318.6757234803708 -999670.93902760011
 32436.287516402706 4064.0886396161363 -999465.54239537567