# OOMMF OVF 2.0
#
# Segment count: 1
#
# Begin: Segment
# Begin: Header
#
# Title: Oxs_TimeDriver::Magnetization
# Desc: Oxs vector field output
# Desc:  MIF source file: /mnt/gpfs/work/plgrid/groups/plggspinsym/MF/switching-obrazki/p-ap/Anisotropy.mif
# Desc:  Iteration: 44100, State id: 308850
# Desc:  Stage: 0, Stage iteration: 44100
# Desc:  Stage simulation time: 6.49228e-09 s
# Desc:  Total simulation time: 6.49228e-09 s
# meshunit: m
# meshtype: rectangular
# xbase: 1.0000000000000001e-09
# ybase: 1.0000000000000001e-09
# zbase: 3.4999999999999998e-10
# xnodes: 35
# ynodes: 35
# znodes: 5
# xstepsize: 2.0000000000000001e-09
# ystepsize: 2.0000000000000001e-09
# zstepsize: 6.9999999999999996e-10
# xmin: 0
# ymin: 0
# zmin: 0
# xmax: 7.0000000000000005e-08
# ymax: 7.0000000000000005e-08
# zmax: 3.4999999999999999e-09
# valuedim: 3
# valuelabels: Magnetization_x Magnetization_y Magnetization_z
# valueunits: A/m A/m A/m
#
# End: Header
#
# Begin: Data Text
 -0 0 -0
 0 0 -0
 -0 -0 0
 -0 0 0
 0 0 0
 -0 0 -0
 0 0 0
 0 -0 0
 -0 0 0
 0 0 0
 0 0 0
 -0 -0 0
 0 0 0
 22990.223992770203 34960.10263272078 -999124.2369318601
 20560.083724686036 34645.530718510323 -999188.15553351445
 18265.520615983914 34286.620099732725 -999245.11429316655
 16508.971760515451 34064.916050289663 -999283.26081541914
 15035.006659742445 34014.673123788358 -999308.23602481303
 13509.790980372583 34137.39235127264 -999325.83474616625
 11591.511728546811 34431.33683012535 -999339.84204570635
 9003.272754241425 34858.218546296761 -999351.7127015352
 6134.9033743091859 35221.195413951267 -999360.71083177975
 0 0 0
 -0 0 -0
 -0 0 -0
 -0 0 0
 0 -0 0
 -0 0 0
 -0 -0 0
 0 0 0
 0 -0 0
 0 -0 -0
 0 -0 0
 -0 -0 0
 0 0 -0
 -0 -0 -0
 -0 -0 -0
 -0 -0 -0
 -0 0 -0
 0 0 -0
 0 0 -0
 -0 -0 0
 0 0 0
 0 0 -0
 0 0 0
 27763.746525001341 32961.841212487227 -999070.91410108528
 25746.374644004056 31856.008002499435 -999160.80735126673
 24215.751638320507 30180.735669446 -999251.07984282007
 22543.430641485687 29630.896136632691 -999306.66150539229
 20245.03302907843 28614.237742381414 -999385.49320873898
 18219.878329474453 27958.721350520718 -999443.01785249531
 16634.479244772785 27639.958388843646 -999479.5279546841
 15279.428188660715 27579.298422456995 -999502.83710090199
 13881.516582275415 27751.952994361127 -999518.45035615761
 12167.342424452765 28192.137293354968 -999528.4684155616
 9937.1919306927739 28990.439151708611 -999530.2930148358
 7423.9033485924028 30178.737927271141 -999516.94804849999
 5777.9075811556258 30867.929956801752 -999506.77170500718
 3925.5047878974719 32474.451798452756 -999464.85700726381
 1383.0654131831334 33503.374442059598 -999437.64739530289
 -0 0 -0
 0 -0 0
 -0 0 -0
 0 -0 -0
 -0 0 0
 -0 0 0
 -0 0 -0
 -0 0 0
 -0 0 -0
 -0 0 0
 0 -0 -0
 -0 0 -0
 -0 0 0
 -0 0 0
 -0 -0 0
 0 0 -0
 0 -0 -0
 -0 -0 0
 32577.401026314892 30525.754613395908 -999002.94856804772
 30106.016374680661 29110.011871210652 -999122.73269449011
 27366.427037607162 28024.695505946827 -999232.55306910118
 24789.53227596332 26135.51844944778 -999350.9962795442
 22859.192136296646 24247.093873023856 -999444.61365980073
 21161.317318003577 22761.669271168859 -999516.93585519423
 19417.049855080379 21578.604532935969 -999578.58220418892
 17874.93525068483 20854.170377996925 -999622.72396521154
 16599.333943052396 20509.090821890735 -999651.85905209358
 15469.815350070048 20453.460749979473 -999671.11629594665
 14308.688358054176 20657.975225555783 -999684.20488524926
 12942.098796161596 21160.565698283113 -999692.3189352206
 11265.836386777421 22055.90010222041 -999693.26205651055
 9380.6323419573946 23409.331540504096 -999681.95288986387
 7560.0749613658645 25013.464083131483 -999658.52763888368
 5363.6025111056906 26940.545847433496 -999622.64818157523
 2419.9189064973539 28875.482312733599 -999580.08709342196
 -573.11501507771004 29987.987478952662 -999550.09486575599
 -3592.5669579107985 31254.393110131783 -999505.00567729562
 -0 0 -0
 -0 -0 -0
 0 0 -0
 -0 0 0
 -0 0 -0
 0 0 -0
 0 -0 -0
 -0 -0 -0
 -0 -0 0
 0 0 0
 0 0 0
 0 0 -0
 -0 0 0
 0 0 0
 -0 -0 -0
 35127.098005075772 27079.809970757724 -999015.90121363429
 32005.498572035289 26112.697262712863 -999146.52334020624
 28517.189166516411 23872.967929828108 -999308.18635907432
 25558.974654405967 21714.647403056872 -999437.44821913517
 23166.776576144031 19706.580619919965 -999537.36855774513
 21350.544375730067 18009.748898916339 -999609.82548165147
 19882.725073285808 16678.866170278801 -999663.18961284857
 18584.425940456749 15700.761294075199 -999704.00879822939
 17458.850964122204 15091.45639302275 -999733.68277104152
 16494.241944920333 14798.908252125217 -999754.43599776423
 15614.043710236747 14766.151850513892 -999769.05453136645
 14710.380753586576 14972.57236612799 -999779.68911897065
 13678.722251328878 15442.125235770493 -999787.19401969435
 12452.468503771941 16230.248337517382 -999790.73563774594
 11031.607978700613 17376.151037343207 -999788.16406303376
 9413.0166334527676 18841.999351996401 -999778.16248319694
 7371.8669794632178 20637.343985977328 -999759.84896896186
 4688.4635528631634 22728.964224266758 -999730.66997807263
 1397.0597901492981 24936.394779002225 -999688.06356751511
 -2558.3579917627103 27178.573784252978 -999627.32052072277
 -6114.8592314444322 28155.572240343132 -999584.84994941682
 -0 -0 -0
 0 -0 0
 -0 0 -0
 -0 -0 -0
 0 -0 -0
 0 -0 -0
 0 0 -0
 0 -0 -0
 -0 0 -0
 0 0 -0
 -0 0 0
 -0 0 0
 -0 0 -0
 36500.233301494052 25045.834049249523 -999019.73912716773
 33599.503935177767 23395.412981423244 -999161.51246269431
 29749.661493858603 20819.289923655972 -999340.53996026574
 26309.230702515684 18290.994320178168 -999486.50011224288
 23621.344157716758 16171.671311327556 -999590.17059351935
 21586.596540102819 14443.259209798278 -999662.64865364123
 20064.045914685154 13080.246413640936 -999713.12946029275
 18884.128426523421 12049.000976907915 -999749.074152624
 17915.387177929293 11317.193012966081 -999775.45481201541
 17098.122828734118 10862.908890109191 -999794.80465052347
 16388.715063890744 10650.54184975245 -999808.96974215086
 15729.097869280722 10646.963174821632 -999819.60255606764
 15050.111232971598 10839.264978317746 -999827.98744914355
 14284.461845539097 11239.66836071754 -999834.79835667089
 13378.595581544017 11877.717590978727 -999839.95369513729
 12291.816330993448 12780.933210801797 -999842.76713768661
 10958.70250781872 13962.295748349492 -999842.46816025011
 9232.8974206023631 15453.238709846106 -999837.96238120343
 6941.3811022291629 17292.990898258166 -999826.36977336532
 3939.2131413209963 19504.445287487812 -999802.01000690856
 106.75377371954764 22106.156914903095 -999755.62335507059
 -4176.7488602496269 24736.72556765515 -999685.27506268129
 -7493.391285415526 26367.489282248873 -999624.23169708834
 0 -0 -0
 -0 0 -0
 0 0 0
 0 0 -0
 0 -0 0
 -0 0 0
 -0 0 0
 0 -0 0
 -0 -0 -0
 -0 -0 -0
 0 0 0
 37478.202418886365 23911.44421285138 -999011.32485027646
 34656.028073737121 21867.302564227743 -999160.03762996709
 30789.556710853114 18873.707563285632 -999347.68041976495
 27128.853889096019 16049.445418565161 -999503.09683783399
 24161.127710723384 13729.72374203988 -999613.79271882481
 21919.919302916405 11924.129717907323 -999688.61765462952
 20268.23475849508 10539.647440313016 -999739.0231913568
 19053.380038531344 9495.8672960660006 -999773.37292678619
 18138.026865400883 8733.1282040864116 -999797.35169343231
 17417.645614392062 8208.7361242868974 -999814.60395039897
 16824.902580941085 7892.1135724128753 -999827.30368624267
 16310.241986670724 7755.9850174998001 -999836.89705008618
 15826.295224385338 7779.3929362165973 -999844.49262123508
 15324.328731165746 7953.7735705604455 -999850.94010803814
 14756.542713195029 8285.0149349889616 -999856.79123296496
 14077.597284119063 8790.2069894895485 -999862.26727274212
 13238.893848016445 9491.4910638405727 -999867.31284059188
 12170.701426674581 10415.131162274374 -999871.69130326691
 10763.457657558542 11603.213349384901 -999874.74886568799
 8876.6759361398508 13117.745132573033 -999874.55682548601
 6353.8504884085523 15040.780795920049 -999866.6928631136
 3052.8510921096781 17465.968512132851 -999842.79766578425
 -985.55136667500449 20374.381739150893 -999791.93498309981
 -5265.819239743113 23397.346001133585 -999712.37631022546
 -8495.1386925434563 25373.172002699415 -999641.95328183158
 0 -0 0
 0 0 0
 0 -0 -0
 0 -0 0
 0 -0 -0
 -0 -0 0
 0 -0 -0
 0 -0 0
 0 0 -0
 38623.400264601492 23046.544214069378 -998988.03283712536
 35659.364167715365 20909.866831106927 -999145.22829079221
 31683.865678338585 17735.37458837028 -999340.5771526976
 27897.468789764618 14695.442314161835 -999502.76398332976
 24753.8967836091 12196.206304199442 -999619.176059469
 22328.210348696011 10268.586066562451 -999697.95796671417
 20533.266281525368 8823.8061177292329 -999750.23151855718
 19230.5431041423 7754.6640069898622 -999785.00258708536
 18287.014266709411 6975.3917307630418 -999808.44616326946
 17591.85337427675 6424.6132126759112 -999824.61013916112
 17060.645430654778 6059.7721485245884 -999836.09333680151
 16632.989180674274 5851.1336799379369 -999844.54186917224
 16263.351910708192 5776.7215648573729 -999851.05534404004
 15912.592155961105 5821.6766117986508 -999856.43844119227
 15543.719466575249 5979.6957306145769 -999861.30839437607
 15120.318661486805 6253.6674255600037 -999866.124842374
 14604.587181039575 6654.729160179767 -999871.20201207721
 13952.141279174568 7201.0891925208607 -999876.73343676073
 13102.749906859804 7919.70222771933 -999882.79126180697
 11971.44073071966 8852.3782819736662 -999889.15385935828
 10447.079185291797 10061.534286758857 -999894.80649930995
 8396.0586591959818 11634.346639186177 -999897.06879121845
 5678.9291569747229 13677.819817920294 -999890.32749029936
 2208.7887936023581 16273.630288163653 -999865.13601050701
 -1941.4224825570427 19370.026420492974 -999810.49852220179
 -6318.9473187709573 22529.587704719605 -999726.20680996345
 -9685.520366304374 24545.512395278151 -999651.79363440687
 0 -0 0
 0 -0 0
 0 0 -0
 0 0 -0
 0 0 -0
 0 -0 0
 -0 0 -0
 40538.716216839166 21877.179061074934 -998938.43730423157
 37121.075730510398 19986.746509889548 -999110.88258539117
 32796.659796754204 16903.884120689032 -999319.08708270465
 28754.073084211825 13837.353693035282 -999490.73578690144
 25408.606902917807 11253.303126490728 -999613.80836000689
 22807.07586097005 9234.6240485037943 -999697.23367095215
 20863.218167094583 7718.8241475994328 -999752.54232309444
 19449.889065389511 6605.7960497598988 -999789.01037863642
 18438.640878772123 5801.0261357655936 -999813.16485547239
 17717.985893705336 5230.5061972042795 -999829.3428284605
 17198.389444692413 4840.8642106093203 -999840.37797750649
 16811.471909006872 4594.8815255451218 -999848.11920412153
 16506.336893619817 4466.7952906133178 -999853.78360147553
 16243.987204273724 4438.7693047801677 -999858.20505047916
 15992.08259230293 4499.4451278245197 -999861.99462120899
 15721.307043591038 4643.8108028783026 -999865.62873521552
 15402.868631498615 4873.2937930028766 -999869.49280670029
 15005.82011065312 5195.7122477220346 -999873.90701880283
 14493.019148890795 5625.6811417269892 -999879.14475082525
 13815.544191717829 6186.5791247221368 -999885.42192464252
 12907.082405195737 6914.4930806814646 -999892.79275791498
 11680.326106250672 7862.7751315756004 -999900.86846110981
 10025.792375369301 9105.7250482769741 -999908.28042305517
 7816.2053667909549 10736.945495684025 -999911.80857868004
 4923.8536843233787 12851.675439665391 -999905.29056670598
 1258.1391397070327 15500.260330627571 -999879.07219602715
 -3141.7641805945636 18578.299408220224 -999822.4722964234
 -7865.2199555451516 21590.548449027781 -999735.95840737922
 -11690.20536302005 23297.843787460879 -999660.21706048993
 0 0 0
 0 0 0
 -0 0 0
 0 -0 0
 -0 0 -0
 43735.832188669083 19575.330754229297 -998851.3319852096
 39636.164338588183 18573.074033780926 -999041.54838397983
 34602.854361573111 15978.223617609765 -999273.40545020904
 30020.178855137587 13124.516342476365 -999463.12384813977
 26296.34322377625 10602.746251708086 -999597.96123490541
 23428.873312539938 8573.1919566064444 -999688.74569786969
 21291.48179087754 7020.4525159609502 -999748.66143927362
 19736.573158906358 5869.3097285066251 -999787.98696686386
 18627.412308718431 5034.7454850461472 -999813.81809243944
 17847.58161816145 4441.9619929402288 -999830.85209651152
 17302.942524415128 4032.5115584196951 -999842.16105869843
 16920.024623170837 3763.5871686282667 -999849.76280358003
 16642.855774365249 3604.8942292868187 -999854.99953206698
 16429.124662757855 3535.3714819627667 -999858.78253446368
 16246.107952917342 3540.6945836564068 -999861.75417316938
 16066.997333356092 3611.8901171794419 -999864.39372870536
 15867.981124645252 3744.8165721991982 -999867.08292846032
 15625.830896527325 3940.0855512199691 -999870.14613630797
 15315.407631287802 4203.2851112276076 -999873.87738822412
 14906.53988924742 4545.7198084856554 -999878.55837594264
 14360.144413361299 4986.0696363537418 -999884.45600579714
 13623.982792999665 5553.0567330400336 -999891.76946996432
 12628.58611658233 6288.6043076849501 -999900.48118228104
 11283.553910851333 7250.4626249250259 -999910.0520561164
 9475.0466545803974 8511.9753557103049 -999918.88159312063
 7066.3637752310133 10154.490150567824 -999923.4734882355
 3905.5692281088818 12245.514596656787 -999917.39353871997
 -143.3643583397695 14786.557785832787 -999890.66260041983
 -5096.4783473127163 17594.361264599811 -999832.21810469078
 -10556.265239452989 20047.116955526115 -999743.30623713892
 -15113.379892092658 20783.169925065846 -999669.76827155415
 0 0 0
 -0 -0 -0
 0 -0 -0
 0 0 -0
 42406.884415583685 16681.665582451747 -998961.1494885867
 37428.694462417217 14816.155169258478 -999189.4586998201
 32084.606713829005 12364.991161421694 -999408.66766583361
 27701.947337162208 10040.412077504227 -999565.80185550719
 24369.233198386526 8090.8817168326987 -999670.28469709272
 21916.104267468072 6556.3172203893046 -999738.31529968022
 20146.673693557663 5395.2378403408147 -999782.4778159156
 18891.958235939877 4541.537550052105 -999811.21635571436
 18016.610135623054 3929.0990541906649 -999829.96751439851
 17415.036459906547 3501.476078341334 -999842.21563723381
 17006.046057126248 3214.441821518476 -999850.2196635647
 16727.868451447361 3035.1282722412939 -999855.47276265989
 16533.793242444841 2939.8947865185432 -999858.98540727247
 16388.365170063236 2912.1239591033591 -999861.46091401076
 16264.048868798245 2940.4789837902495 -999863.40782015806
 16138.400226470434 3017.8151796171742 -999865.21333111287
 15991.714302284059 3140.6566565626849 -999867.19185571815
 15804.953969932392 3309.0961343378553 -999869.61815667839
 15557.626456625325 3527.0433635393465 -999872.75201604946
 15225.304052377378 3802.9122123723755 -999876.85640543629
 14776.609191325086 4150.8638118735544 -999882.2041372786
 14169.63942655077 4592.6206824976343 -999889.05842287722
 13347.780101969747 5159.5782113116429 -999897.60251689306
 12234.705153209939 5894.6289906479888 -999907.77841702802
 10728.375358317748 6852.4864606213951 -999918.96941276104
 8694.1881040295775 8096.3732440256772 -999929.4274265084
 5959.1141439472003 9687.3924367160216 -999935.31960142124
 2316.3064026889415 11658.762210586216 -999929.35149857751
 -2424.0488178983378 13957.900125779361 -999899.64547018788
 -8199.9150503908513 16321.659767799969 -999833.16849141929
 -13697.987473428449 18049.994278319369 -999743.24846218911
 -0 0 -0
 -0 -0 -0
 0 0 -0
 46166.084337215805 14629.096947345806 -998826.65271781501
 41417.500075756754 13761.582429120117 -999047.1508074688
 35309.281582108517 11655.754259864309 -999308.45989953948
 29965.706474558563 9524.4725630368066 -999505.54818764084
 25880.436080804244 7689.4315392872513 -999635.47139488312
 22904.625420885779 6212.1749445674286 -999718.35384611564
 20785.24261607962 5071.5337240855051 -999771.10042002925
 19298.557469223317 4217.8053578865547 -999804.86886070448
 18270.758365000631 3595.797894273715 -999826.60978105175
 17571.753136305546 3155.0128922710846 -999840.6269928054
 17105.012241959808 2853.4720407929785 -999849.62682071107
 16798.888255607169 2658.3313430327194 -999855.35485281376
 16600.036965223688 2544.9328176164277 -999858.97110027808
 16468.516244593313 2495.2944619123509 -999861.27111627324
 16374.055974910834 2496.6041896379656 -999862.81921994209
 16293.140677325551 2540.020414255162 -999864.03168789123
 16206.670124620921 2619.8680006890991 -999865.23098622204
 16098.024378350063 2733.2255247774183 -999866.68265791552
 15951.321953064291 2879.8333528731741 -999868.62231385615
 15749.642967319362 3062.3086455017556 -999871.27722130402
 15472.97829529527 3286.6774079168476 -999874.88452020322
 15095.705999131425 3563.2742473755238 -999879.70413296507
 14583.384797383111 3907.9800615930076 -999886.01979410124
 13888.583165011874 4343.672791389552 -999894.11427628144
 12945.284210281074 4901.574167057609 -999904.19250416162
 11661.270874092987 5621.9324576889858 -999916.20080736885
 9907.9632175750939 6553.0728546300325 -999929.44226132322
 7508.3229344818546 7747.2121993728588 -999941.8012013745
 4228.5083821800845 9249.9624584846279 -999948.2776180869
 -202.600942209538 11077.213383677185 -999938.62526482611
 -5954.791368595651 13161.395047765858 -999895.65362599364
 -12531.224321097765 15170.177867262153 -999806.39831943961
 -17724.595885247796 15818.40438746707 -999717.76856437791
 -0 -0 0
 0 0 -0
 45051.665399130776 12226.17610850044 -998909.83980664075
 39530.090890262945 10950.947461966523 -999158.37016155396
 33309.129642266867 9093.6726339412799 -999403.7257287472
 28227.990271884519 7361.3731133514102 -999574.40480991534
 24472.295647705512 5939.9223726591272 -999682.86174563272
 21805.769316858463 4830.8664436782365 -999750.55446541426
 19950.811241254316 3991.2777819434523 -999792.99599091173
 18679.528928942149 3371.5071045727177 -999819.83784021658
 17821.850249492862 2925.7559910509704 -999836.89750157029
 17254.504490552892 2615.2159557174946 -999847.70976398711
 16888.559032057736 2408.636473191782 -999854.47693359887
 16659.507632436736 2281.7754555983761 -999858.61715855368
 16520.108831136455 2216.3664757993283 -999861.07721215568
 16435.32307836504 2198.9521200617187 -999862.51293109474
 16378.701825642793 2219.8236418708871 -999863.39592441625
 16329.734494261689 2272.1764307894423 -999864.07925558265
 16271.82519854432 2351.5415841669892 -999864.83984430891
 16190.646346307971 2455.4743877192036 -999865.90781785338
 16072.664431337571 2583.4914322054951 -999867.48873543099
 15903.626058845277 2737.2287972044155 -999869.78265006689
 15666.804128812842 2920.8408424713966 -999873.00190432288
 15340.775403236807 3141.6362847989858 -999877.38784887095
 14896.464264428341 3410.9537569443382 -999883.22355507407
 14293.063739444045 3745.2068270049031 -999890.83491887397
 13472.284860169291 4166.988584302816 -999900.56192942744
 12350.194918610505 4706.0163513129428 -999912.65923358221
 10805.927916635599 5399.59586636519 -999927.03548125981
 8667.4365851029688 6291.9959862654923 -999942.64151977829
 5698.5112134211049 7431.2156310170858 -999956.15104073216
 1605.7360919148534 8857.8531894955686 -999959.47920327075
 -3867.9359007164662 10564.587710890968 -999936.71227651555
 -10552.473380467762 12348.288132107875 -999868.07384062465
 -16603.907817995503 13486.569723983697 -999771.18516301119
 0 0 0
 -0 -0 0
 43463.366599720976 10368.97495098026 -999001.21127168019
 37683.595917213483 8805.611624512132 -999250.92334341444
 31623.353045855194 7135.5344180599022 -999474.38571016211
 26852.84222172877 5734.5496823179246 -999622.94881848106
 23400.871929727793 4642.4047917220823 -999715.3831319582
 20991.227514819635 3817.2895461081102 -999772.37242681521
 19343.406938796255 3206.6367314233098 -999807.75656566746
 18235.406308304136 2764.0017212531302 -999829.90065873484
 17504.549511082478 2451.5156234486403 -999843.77820615657
 17034.699958134588 2239.1841048367414 -999852.39163182513
 16743.302221686015 2103.688465605625 -999857.6080250392
 16571.293558297137 2027.2112082782824 -999860.63161048689
 16475.895191169209 1996.3537497271773 -999862.27023993433
 16425.614485049929 2001.1913568510017 -999863.08783850085
 16396.775629471456 2034.483325415456 -999863.4939963331
 16371.066503507614 2091.0768181400017 -999863.79851421667
 16333.724447571827 2167.4960489806022 -999864.24648876628
 16272.098946308559 2261.7250903681588 -999865.04259099741
 16174.368828325969 2373.1567207387325 -999866.3700316078
 16028.226982487087 2502.7153882850357 -999868.40751945111
 15819.327655511472 2653.1402961120493 -999871.3465836976
 15529.276539718398 2829.4485408653454 -999875.41013423656
 15132.864097017524 3039.5657018910933 -999880.87163649919
 14594.1409533358 3295.1299346410383 -999888.07032014744
 13860.757781084114 3612.4426007176135 -999897.40956369659
 12855.836812683643 4013.5651634238598 -999909.30526449473
 11466.629257476066 4527.5454873806939 -999924.00598512066
 9529.9420811708478 5191.7102154623135 -999941.11144055286
 6817.4319825500588 6052.421200926955 -999958.44454595714
 3034.5728309123938 7162.2963100873949 -999969.74598199723
 -2117.3822485672172 8561.9140641472222 -999961.10440355213
 -8637.0858366090306 10207.212029446604 -999910.60278948781
 -14958.686981000996 11724.763673957315 -999819.36748624477
 -0 0 -0
 48306.031261977121 9755.2367413803786 -998784.9431683661
 43038.865237552338 8729.522014685228 -999035.26040098234
 36256.381717688753 7034.9932932158717 -999317.75910073053
 30303.614450244284 5586.2223125048531 -999525.12978490244
 25804.988929335355 4481.4992015268945 -999656.95051415672
 22605.898124927997 3662.4344664134569 -999737.74558318267
 20400.534224544201 3063.2276726802056 -999787.19477675774
 18911.621223364313 2630.6239393065594 -999817.69858329371
 17925.76342073538 2324.1548439887129 -999836.61930839729
 17288.305619102674 2113.4304404821537 -999848.31244573975
 16889.664567548796 1975.6009231815747 -999855.40766242216
 16652.519237922126 1893.4674944860014 -999859.54432804103
 16521.961608028152 1854.1100215634335 -999861.78397849097
 16458.486189159466 1847.8732856883773 -999862.84239223588
 16433.151449352517 1867.5863587662377 -999863.22247327166
 16424.268181081388 1907.9747087402393 -999863.2921790994
 16415.096730298763 1965.2231162278292 -999863.33190963569
 16392.187790438184 2036.6907836794758 -999863.56472775561
 16344.086429459285 2120.7508420438717 -999864.17740343732
 16260.1928311191 2216.7616576437067 -999865.33698135975
 16129.583485712807 2325.149170564724 -999867.20629187149
 15939.607989088197 2447.6171163627228 -999869.96057867736
 15674.029433802374 2587.4757169193472 -999873.80692301493
 15310.422868543383 2750.1144342158486 -999879.00659139024
 14816.422688350409 2943.6231880420542 -999885.89784097241
 14144.274295652502 3179.6118738831155 -999894.90926445904
 13222.983158365612 3474.2879587845946 -999906.5366520877
 11947.355933140139 3849.9327182172774 -999921.21624869655
 10163.770711433217 4336.941967397489 -999938.94248563843
 7654.8510776046842 4976.5194379018285 -999958.31788593251
 4132.8063713364982 5823.4003308895699 -999974.5036350094
 -725.05415630097013 6945.0982605763547 -999975.6196561103
 -7089.0908234806957 8399.2407389139516 -999939.59694888862
 -14320.080851296752 10068.733035727328 -999846.76620943635
 -19980.786246755088 10923.674986560103 -999740.68713129277
 47889.95177828813 7094.7778489837965 -998827.42085204425
 41957.366537160618 6375.5174788742816 -999099.06023884506
 35047.354280189262 5250.4167328890044 -999371.86076159356
 29301.881595940864 4240.6044939585572 -999561.61241239298
 25040.98112564479 3463.3995194380568 -999680.4260002462
 22041.250460115247 2893.7103295190673 -999752.87432379171
 19990.610752402292 2484.8610911561113 -999797.07988526509
 18619.063117383132 2196.5106107859042 -999824.23746865022
 17721.760285230761 1998.0541089410488 -999840.96084935975
 17151.126170459789 1866.9825965209141 -999851.16554768744
 16802.988874212962 1786.7866147414766 -999857.2232866484
 16604.106397369818 1745.2954753168358 -999860.61908370454
 16502.662762502096 1733.4972522123646 -999862.31907649327
 16461.506761833236 1744.6985280776348 -999862.97802357713
 16453.498230595622 1773.9280568564016 -999863.05841111322
 16458.333626336273 1817.4984770595213 -999862.90057863935
 16460.366929067273 1872.7036455793343 -999862.76523411763
 16447.05524408149 1937.6131911175223 -999862.86061085376
 16407.768086463962 2010.968834582693 -999863.36124030827
 16332.742432892104 2092.1580979597438 -999864.42300899676
 16212.006585723522 2181.2793220957419 -999866.19747993455
 16034.077864116904 2279.282921939031 -999868.8480077819
 15784.221724980896 2388.2116605843216 -999872.56927550561
 15441.980232789616 2511.5382547423446 -999877.61122153583
 14977.589203069423 2654.6409017980754 -999884.30565908307
 14346.753497484528 2825.4493063031441 -999893.0880350658
 13483.125093746472 3035.3532270116743 -999904.4914233028
 12287.794242230637 3300.4766156447536 -999919.05520735541
 10615.555760698891 3643.4390785134028 -999937.01568027399
 8259.5861263783499 4095.4909783422631 -999957.50219230168
 4942.2829742703161 4697.9052205506159 -999976.75149252382
 338.37653446102928 5497.3459411558806 -999984.83222943137
 -5790.4558678683634 6513.5832529983709 -999962.02120582981
 -13132.891549649023 7607.9040722676982 -999884.8168440063
 -19551.99008021464 8231.6771787558082 -999774.95426457236
 47429.487356660749 4582.2887256313379 -998864.07802018756
 41202.682575142127 4235.4426524140245 -999141.83176071174
 34254.245762309161 3648.7742476416265 -999406.49042006175
 28641.432818738762 3072.5826203802985 -999585.0276800521
 24539.692517607546 2608.2869736265434 -999695.45379090542
 21676.521830685851 2264.5297106658077 -999762.47194346774
 19732.244004089549 2020.9513639969762 -999803.25779732643
 18440.923437620419 1854.1879604864987 -999828.2324128357
 17603.603618574907 1744.9265232386449 -999843.52194284298
 17077.805657450004 1678.611948373496 -999852.75456731778
 16763.263006445704 1644.5651484950777 -999858.13414646429
 16589.632551043498 1634.980802646242 -999861.04581066477
 16507.243486784741 1644.1255774459617 -999862.39441412839
 16480.545566688503 1667.7641000999613 -999862.79567785235
 16483.600785207418 1702.7441684814905 -999862.68635620689
 16497.022096462879 1746.7103255898194 -999862.38916412252
 16505.877261597801 1797.8977433247364 -999862.15228876902
 16498.212481145387 1855.0059418234575 -999862.174471003
 16463.925804862578 1917.124646253 -999862.62245379644
 16393.791624170924 1983.724224978552 -999863.64492083748
 16278.447789518064 2054.6914915196903 -999865.38612977252
 16107.169264649026 2130.429596066343 -999868.00147220225
 15866.206389552523 2212.0110670740537 -999871.67701752752
 15536.417989027786 2301.4117829811917 -999876.65400282014
 15089.818038859383 2401.8317518178674 -999883.25748348737
 14484.537681011143 2518.1519454064101 -999891.92269912199
 13657.553011650782 2657.5622340273048 -999903.19961919601
 12514.486862938524 2830.4156352528721 -999917.68479504832
 10916.088584559775 3051.2449570854255 -999935.76239387796
 8662.4584498426102 3339.5088857860742 -999956.90381836286
 5480.874516070744 3718.3505251778583 -999978.0667014207
 1037.6246885361975 4206.1207460064716 -999990.61589760717
 -4961.3800768346628 4787.6807068005101 -999976.23112811195
 -12366.980650629157 5349.6275266977991 -999909.21551654499
 -19131.9633221687 5642.4157883590888 -999801.04577036249
 47152.630637503673 2650.41342237458 -998884.17983901117
 40816.842689724253 2531.3066620439995 -999163.43900256127
 33846.644179386822 2304.4852140763301 -999424.3813444277
 28293.421984294677 2065.7701607412787 -999597.52644054778
 24275.013600300223 1867.8614889253008 -999703.57346973778
 21488.42068967365 1722.9455914143932 -999767.61261542793
 19605.522562114442 1625.3590413793345 -999806.47212000634
 18360.878998401316 1565.1491043505355 -999830.19979928946
 17558.380333752426 1533.1726700524812 -999844.66426621424
 17058.412915814628 1522.2732516061242 -999853.3358612858
 16763.013552659031 1527.1492906001549 -999858.32455987355
 16603.565617276843 1543.9293786538212 -999860.95927927236
 16531.672433724281 1569.7848976851878 -999862.11028417246
 16512.722692892414 1602.6269576181146 -999862.37131722399
 16521.477944276263 1640.8945102956077 -999862.16461657512
 16539.075566225576 1683.3963347114579 -999861.8030288961
 16550.98862896167 1729.2088584080891 -999861.52771877754
 16545.589540301298 1777.6023630120837 -999861.53221163724
 16513.067062259372 1828.0085152396621 -999861.97897563095
 16444.485880098659 1880.0086624714086 -999863.01284304343
 16330.817830267561 1933.360182419071 -999864.77411067905
 16161.756358278008 1988.0444464020204 -999867.41386580584
 15924.110509081012 2044.3567855064657 -999871.11334902979
 15599.499720376481 2103.0287275515598 -999876.1087648035
 15160.989552698336 2165.4097530409335 -999882.72082098923
 14568.164941031282 2233.710841710315 -999891.38365430792
 13760.002312746696 2311.3415658916747 -999902.65528026235
 12644.793458428869 2403.3228057998349 -999917.16318797367
 11086.560844260141 2516.6818940090602 -999935.37515225983
 8888.4919048859847 2660.4036591702816 -999956.9575556874
 5777.9078512198685 2843.736729008961 -999979.26425615407
 1410.4641982636915 3070.0599559325246 -999994.29264501901
 -4543.3478301228806 3322.1429073215941 -999984.16055305488
 -11996.676990773369 3540.8169923247369 -999921.7681179893
 -18898.716476163565 3632.804808521103 -999814.80347351171
 47098.799299074752 1053.9232097286501 -998889.6797697196
 40732.568359114724 1086.8343323696281 -999169.49346244766
 33752.427836352123 1120.5166061297384 -999429.59634868067
 28214.369335468818 1153.398232002585 -999601.23000900727
 24221.462645660373 1187.0579922593515 -999705.91257660743
 21460.04267949651 1222.3691786385448 -999768.95950103668
 19597.967676153872 1259.3494813918762 -999807.1482550262