# OOMMF OVF 2.0
#
# Segment count: 1
#
# Begin: Segment
# Begin: Header
#
# Title: Oxs_TimeDriver::Magnetization
# Desc: Oxs vector field output
# Desc:  MIF source file: /mnt/gpfs/work/plgrid/groups/plggspinsym/MF/switching-obrazki/p-ap/Anisotropy.mif
# Desc:  Iteration: 37400, State id: 261950
# Desc:  Stage: 0, Stage iteration: 37400
# Desc:  Stage simulation time: 5.50648e-09 s
# Desc:  Total simulation time: 5.50648e-09 s
# meshunit: m
# meshtype: rectangular
# xbase: 1.0000000000000001e-09
# ybase: 1.0000000000000001e-09
# zbase: 3.4999999999999998e-10
# xnodes: 35
# ynodes: 35
# znodes: 5
# xstepsize: 2.0000000000000001e-09
# ystepsize: 2.0000000000000001e-09
# zstepsize: 6.9999999999999996e-10
# xmin: 0
# ymin: 0
# zmin: 0
# xmax: 7.0000000000000005e-08
# ymax: 7.0000000000000005e-08
# zmax: 3.4999999999999999e-09
# valuedim: 3
# valuelabels: Magnetization_x Magnetization_y Magnetization_z
# valueunits: A/m A/m A/m
#
# End: Header
#
# Begin: Data Text
 -0 0 -0
 0 0 -0
 -0 -0 0
 -0 0 0
 0 0 0
 -0 0 -0
 0 0 0
 0 -0 0
 -0 0 0
 0 0 0
 0 0 0
 -0 -0 0
 0 0 0
 23579.608179515079 33983.886715368288 -999144.18254915427
 21201.491194756451 33785.347188934167 -999204.20689989172
 18964.213002345747 33539.811766887891 -999257.44413131266
 17247.309651152456 33407.775380509462 -999292.97548512905
 15786.400553272146 33425.459915238403 -999316.53052825364
 14243.991463461694 33598.897566446212 -999333.88954318385
 12279.448685984293 33928.665047037743 -999348.81839530577
 9628.2162350843919 34374.634608996399 -999362.63785856462
 6717.8463153837984 34736.426374922325 -999373.92962973693
 0 0 0
 -0 0 -0
 -0 0 -0
 -0 0 0
 0 -0 0
 -0 0 0
 -0 -0 0
 0 0 0
 0 -0 0
 0 -0 -0
 0 -0 0
 -0 -0 0
 0 0 -0
 -0 -0 -0
 -0 -0 -0
 -0 -0 -0
 -0 0 -0
 0 0 -0
 0 0 -0
 -0 -0 0
 0 0 0
 0 0 -0
 0 0 0
 28094.821638334419 31842.616417556666 -999097.95754810458
 26220.891262722227 30858.599235950634 -999179.76946822926
 24839.729262136672 29273.744018484511 -999262.74610901205
 23224.400673191198 28762.709647191343 -999316.43324180471
 20961.016000510419 27832.496476219461 -999392.80963399343
 18972.307680739395 27268.532585098546 -999448.08703199937
 17413.739221765842 27028.937499681764 -999482.96544961445
 16064.835019844622 27033.867015241965 -999505.42325191398
 14646.3429307481 27261.92360886592 -999521.0213696853
 12884.053288452411 27751.599366758659 -999531.81535329169
 10586.463476334353 28598.036229290854 -999534.93141305097
 8012.5083653832844 29837.461557725368 -999522.6488666907
 6328.6991519883823 30588.766346855664 -999512.01840719325
 4410.3336026873412 32171.581834580116 -999472.63008037093
 1807.9122648185908 33157.63976392016 -999448.49911265005
 -0 0 -0
 0 -0 0
 -0 0 -0
 0 -0 -0
 -0 0 0
 -0 0 0
 -0 0 -0
 -0 0 0
 -0 0 -0
 -0 0 0
 0 -0 -0
 -0 0 -0
 -0 0 0
 -0 0 0
 -0 -0 0
 0 0 -0
 0 -0 -0
 -0 -0 0
 32580.979683975427 29354.77612973113 -999037.92564707261
 30315.340919343089 28064.347664806639 -999146.321864367
 27751.945388542186 27040.296997545829 -999249.04396523477
 25313.619414968111 25230.823464103843 -999361.10901887598
 23507.086872519063 23396.380702011873 -999449.86179238337
 21886.740317559957 21941.136186427109 -999519.66320884391
 20188.702685580312 20806.695182148022 -999579.66051709477
 18680.852770096313 20145.581834362743 -999622.51939036301
 17427.397183456425 19866.859636331545 -999650.73586508236
 16301.347750980189 19875.866476090901 -999669.55339918518
 15120.055803584448 20143.59992180092 -999682.75932652084
 13708.773170383551 20710.67202665285 -999691.52122160536
 11968.783723553774 21674.744706138164 -999693.42983641871
 10014.247937513144 23099.641573243396 -999683.01045753167
 8125.163367349267 24764.271171505323 -999660.29859827762
 5843.1563105022497 26715.678571765689 -999625.99508155114
 2813.2842746406341 28662.353953754518 -999585.191415629
 -246.02724546374102 29784.611541512524 -999556.30976244423
 -3308.410526962175 30987.386546582868 -999514.3001952488
 -0 0 -0
 -0 -0 -0
 0 0 -0
 -0 0 0
 -0 0 -0
 0 0 -0
 0 -0 -0
 -0 -0 -0
 -0 -0 0
 0 0 0
 0 0 0
 0 0 -0
 -0 0 0
 0 0 0
 -0 -0 -0
 35051.622174296434 25980.308194591456 -999047.75029478164
 32091.550250773864 25084.50049546807 -999170.10575646965
 28778.798240426542 22929.27077265882 -999322.78534699231
 25976.390720718999 20812.929157178558 -999445.87102304981
 23712.877756855061 18835.855238725537 -999541.34981296025
 22007.775185615727 17162.151240620678 -999610.48333647125
 20625.881866659889 15851.121723059816 -999661.60021146305
 19389.683022867015 14905.300331125716 -999700.89137417078
 18308.501838811779 14343.257482554629 -999729.49827701272
 17371.227446437166 14108.117316548829 -999749.56938364659
 16498.231145158381 14138.869994822295 -999763.92249588121
 15578.798220245411 14413.414194142098 -999774.75190028723
 14507.997889460859 14955.859389186528 -999782.89656663465
 13222.381722062402 15821.633597721475 -999787.3996664969
 11727.847871057669 17046.813776208564 -999785.9089447062
 10024.181613359679 18585.535556500112 -999777.02196592849
 7884.053060168364 20439.735200322924 -999760.0006663024
 5096.1053326313613 22579.875205376535 -999732.05357543088
 1707.2552531446117 24819.005500623829 -999690.50322860468
 -2321.422670289794 27062.412434019268 -999631.0503530975
 -5890.7622365909247 28045.749625449291 -999589.28307991498
 -0 -0 -0
 0 -0 0
 -0 0 -0
 -0 -0 -0
 0 -0 -0
 0 -0 -0
 0 0 -0
 0 -0 -0
 -0 0 -0
 0 0 -0
 -0 0 0
 -0 0 0
 -0 0 -0
 36281.666397839268 24099.062312709888 -999050.98762728029
 33571.446019416369 22476.418451378864 -999183.55101841234
 29884.480984892463 19936.407030071485 -999354.52041354915
 26589.713147320286 17431.710840346288 -999494.43350722163
 24038.058834683125 15319.319617376277 -999593.66253189149
 22128.35444146776 13593.329435539872 -999662.72178398725
 20718.739413494011 12235.101471577937 -999710.47615251865
 19635.20805186269 11215.661499346135 -999744.3010799773
 18743.816381794513 10508.64358208163 -999769.09221955377
 17984.499217898367 10093.854016816262 -999787.31333167478
 17312.517873638499 9933.6591279136192 -999800.77972624404
 16667.77410420524 9992.1279697557911 -999811.15351102548
 15979.508950410638 10254.249564405862 -999819.73658233765
 15180.381470647606 10730.814126394574 -999827.18789128261
 14218.745691032576 11449.789674633983 -999833.35090773006
 13057.100727278681 12435.911380844767 -999837.41689772997
 11632.676395833338 13698.11848827681 -999838.50815506745
 9801.083206144056 15264.69477494447 -999835.45039242029
 7394.4741929114916 17174.481840418895 -999825.16417867946
 4276.5865871109199 19447.663996047351 -999801.72993061971
 345.08147296835438 22097.766206153472 -999755.75499592687
 -3986.6182538375888 24757.69541140657 -999685.53225142451
 -7286.4457143638738 26388.414244210122 -999625.20941727352
 0 -0 -0
 -0 0 -0
 0 0 0
 0 0 -0
 0 -0 0
 -0 0 0
 -0 0 0
 0 -0 0
 -0 -0 -0
 -0 -0 -0
 0 0 0
 37029.75178378811 23218.301775828022 -999044.3973845595
 34442.440120056752 21163.749782336927 -999182.57291334239
 30763.736132525857 18160.084670684701 -999361.69821737788
 27251.029743935705 15313.053026975793 -999511.32649154507
 24418.629639468403 12968.103694823767 -999617.70633232116
 22310.701345553141 11138.942702795252 -999689.02992927423
 20789.122250047349 9737.1586825450358 -999736.46534317406
 19696.869455017586 8685.9002815577533 -999768.2673849829
 18891.305809117734 7928.1527077935107 -999790.10945271316
 18263.475586462857 7423.436030094952 -999805.65014257142
 17742.863157827309 7141.6147671328299 -999817.07734239101
 17277.35111814049 7054.0391523223598 -999825.85167116905
 16817.499696240779 7137.5296197885355 -999833.09975960176
 16313.411184163604 7381.2243118483448 -999839.68222070194
 15717.446335794843 7788.8429718485286 -999846.13606586563
 14985.853206021548 8375.2720428766443 -999852.62865179032
 14072.68841143877 9160.1983894217465 -999859.0151648086
 12911.316556231966 10167.386737823559 -999864.95195686736
 11395.617100587509 11437.130819822409 -999869.65748016723
 9389.8543388262715 13030.777578445082 -999871.00641592604
 6744.7255735976305 15029.443079908238 -999864.3030519915
 3330.8480571329851 17523.824645549019 -999840.8978537597
 -789.3327928890734 20485.955214382233 -999789.82921046787
 -5095.5195803935258 23527.05077948805 -999710.21479317953
 -8294.4019203679418 25479.847880811252 -999640.92565718526
 0 -0 0
 0 0 0
 0 -0 -0
 0 -0 0
 0 -0 -0
 -0 -0 0
 0 -0 -0
 0 -0 0
 0 0 -0
 37853.071396609834 22683.681984080697 -999025.82326859212
 35175.907262596447 20510.9772062146 -999170.63375696703
 31427.988154771534 17291.203012526585 -999356.44084526866
 27812.766504594689 14186.441629459128 -999512.47860807378
 24815.125041573629 11620.724573152651 -999624.51366979105
 22530.602079656754 9635.4157578439153 -999699.72028259642
 20878.496392729703 8145.0874723693105 -999748.84142890922
 19718.269804125106 7044.0831777049843 -999780.76133126172
 18911.59080609402 6247.7845280082438 -999801.6387872519
 18341.588412127716 5695.713534354607 -999815.55548103712
 17918.341660204067 5345.7918173507378 -999825.16248691909
 17576.944687377883 5167.8632392402851 -999832.15801703301
 17268.396899535936 5138.5324167508643 -999837.68580361188
 16951.189829658026 5240.838074262032 -999842.58299976308
 16587.23362753422 5466.0543868631403 -999847.48133404087
 16140.428432479828 5814.5557652439556 -999852.82792582479
 15574.678977497671 6294.9675483917899 -999858.891423341
 14848.478862061411 6923.0789494717619 -999865.7878202165
 13905.298161223775 7723.721751958532 -999873.48539970093
 12664.483866552742 8737.1970386003068 -999881.62911231769
 11019.994709865638 10025.129562377428 -999889.02208887751
 8844.6965306884485 11673.986293235985 -999892.73894118541
 6008.3005108984735 13788.661697054464 -999886.88016873936
 2437.1621239139968 16444.470208091931 -999861.81027197791
 -1778.5191989514169 19575.561710389884 -999806.79846317379
 -6168.1938530211655 22725.920828856131 -999722.70450714102
 -9499.1274630270091 24689.368090112388 -999650.03960423672
 0 -0 0
 0 -0 0
 0 0 -0
 0 0 -0
 0 0 -0
 0 -0 0
 -0 0 -0
 39340.924276157893 21876.969671135565 -998986.33117530996
 36276.459832326917 19942.084634471248 -999142.79846399615
 32234.230812313406 16795.700991129084 -999339.2110750759
 28399.896208685539 13636.904331615007 -999503.61716983607
 25223.326102636587 10953.651385167685 -999621.82916423562
 22777.697972430971 8843.8811411118368 -999701.43655065284
 20989.766315372453 7251.7692303213216 -999753.3903683729
 19735.378053846998 6079.2393768827715 -999786.75611435785
 18883.146460668242 5232.2841159935024 -999808.00656059699
 18315.929124007027 4637.0742241880071 -999821.49620968045
 17937.769286156818 4240.260247962181 -999830.11388238647
 17674.18788407512 4004.3130747102041 -999835.78079574555
 17469.068176088222 3902.5665949534123 -999839.78798157012
 17279.368522288925 3915.6021951166363 -999843.03342220711
 17070.074022696092 4029.8984513460582 -999846.17441451061
 16810.719175294409 4237.8985967561366 -999849.708674405
 16472.95338389579 4538.2966864720665 -999854.01217877679
 16027.808122118584 4936.171477454729 -999859.36189943529
 15441.451015405371 5443.5636349955394 -999865.95561879734
 14669.297250935617 6081.6400209908452 -999873.90473640186
 13650.076087375441 6884.8111472891278 -999883.13056990574
 12302.043952954893 7905.3142886883652 -999893.07714403979
 10521.860051874215 9216.5142823296537 -999902.16837725288
 8189.3375742987537 10910.315273269163 -999906.94555580127
 5185.3543814284176 13077.846138886749 -999901.03612322873
 1430.0730511156512 15760.878739508884 -999874.76695455541
 -3023.5610961420007 18840.982803141425 -999817.92114630016
 -7750.0161155282813 21807.190827108308 -999732.15596900706
 -11534.981815585172 23426.680553456088 -999659.00927904423
 0 0 0
 0 0 0
 -0 0 0
 0 -0 0
 -0 0 -0
 42050.50889585109 19877.765053643059 -998917.72892369493
 38353.097065586015 18861.056621104188 -999086.23275902134
 33665.442672279118 16218.930294974281 -999301.54821743711
 29338.902341390902 13273.042650123141 -999481.39309754549
 25815.293855953299 10639.433486409369 -999610.11052220711
 23123.898243342992 8498.2626738593481 -999696.48637051706
 21157.275655764555 6844.9148595274673 -999752.72784193582
 19775.881212414872 5608.9891479115186 -999788.70455862372
 18843.683498360486 4707.243992261494 -999811.36093075643
 18240.55871626169 4065.4458666335963 -999825.36183456762
 17866.426206732573 3625.2685858667837 -999833.81031163363
 17641.112671410934 3343.7399316927108 -999838.79227952717
 17502.131888786702 3190.0050539215472 -999841.73709997896
 17401.46875537188 3141.9071216209504 -999843.64642917784
 17301.921447499051 3183.4244888407334 -999845.24268646108
 17173.728954015562 3303.3401726039669 -999847.06379401754
 16991.839410739285 3494.8511500842055 -999849.52038238151
 16733.573705658961 3755.6723419329237 -999852.93040341558
 16376.060102547972 4088.4499709672009 -999857.54446938704
 15892.904015004267 4501.7051015267389 -999863.56581943145
 15249.96317915725 5011.6740531453779 -999871.15257227991
 14400.695063060808 5645.1215187129073 -999880.36913659808
 13281.678032164029 6442.5157910391363 -999891.03957327886
 11808.620801877354 7460.4411992956266 -999902.44438738585
 9873.7245163564876 8770.8035936080742 -999912.78748123685
 7346.3670342477835 10452.301352210339 -999918.38681356423
 4081.2540849873353 12567.319820408584 -999912.69910808979
 -49.009870196084329 15108.512322298242 -999885.85871260311
 -5047.1036301755285 17879.560438258741 -999827.40913793782
 -10495.366781553836 20246.769598097613 -999739.92397871264
 -14978.60252073188 20868.175664396422 -999670.02591403411
 0 0 0
 -0 -0 -0
 0 -0 -0
 0 0 -0
 40810.133975213103 17192.641125880757 -999018.99183951563
 36121.060227297508 15351.502471642076 -999229.50335742161
 31052.789630541378 12853.724130133267 -999435.09345637239
 26895.797085683553 10436.449836657586 -999583.76167979685
 23757.901534596229 8376.8400431004648 -999682.64497567655
 21488.682916704325 6732.2498161889125 -999746.4245091941
 19904.014952325047 5470.4603908912113 -999786.92942640989
 18839.177080122441 4529.9946187806436 -999812.2646555691
 18157.729450168008 3846.9922481697836 -999827.73391812691
 17749.590560760418 3366.1151615921758 -999836.79733426706
 17527.223869865651 3043.630742260696 -999841.75384673767
 17421.799895119744 2846.6803611911278 -999844.17650918756
 17379.689709596376 2751.1122189051762 -999845.17689848226
 17359.296840338731 2739.2004048470085 -999845.56387191673
 17328.218657026096 2797.8838088405619 -999845.94047501462
 17260.78129148997 2917.723225859695 -999846.76441962074
 17135.932852363308 3092.5040513888071 -999848.38661867729
 16935.263152874737 3319.3008623579817 -999851.07846305193
 16640.820005131391 3598.9301547511709 -999855.05490110815
 16232.392897770804 3936.8367954426221 -999860.49563769577
 15684.11801120525 4344.5316654223716 -999867.55797296425
 14960.400670073237 4841.5436508320017 -999876.36529066321
 14011.188806831002 5457.5889984697469 -999886.94426447188
 12766.455954040819 6234.2928348691548 -999899.07050422963
 11129.799221381134 7225.2184285885432 -999911.9580182801
 8971.398755605047 8492.0307064690824 -999923.69679833495
 6122.4217443842308 10093.163124743687 -999930.31957737973
 2380.8626560825687 12057.30740129454 -999924.47356350033
 -2434.280286029099 14325.279930992463 -999894.4247441265
 -8240.9670214025209 16628.044491274708 -999827.78247003548
 -13691.777864651933 18277.039135771131 -999739.20852357021
 -0 0 -0
 -0 -0 -0
 0 0 -0
 44107.637793674628 15561.903587770697 -998905.57283708593
 39747.425207049229 14619.185133306795 -999102.80833127885
 33944.627801471921 12474.983192955808 -999345.85456575314
 28839.745596084762 10280.265576562666 -999531.18271198962
 24957.957630374171 8355.7301231970869 -999653.5810594731
 22171.576307974738 6776.3841305535107 -999731.21478832234
 20241.135844196611 5532.690515034592 -999779.81863778469
 18949.74712071781 4582.5017811218822 -999809.93581854715
 18124.977596486879 3875.1902731258865 -999828.21928943077
 17634.098729703477 3363.0123740445692 -999838.85137044115
 17375.260137542649 3005.6715907706675 -999844.52104986866
 17269.926966372026 2771.2668531530358 -999847.02315034391
 17257.233700346358 2635.4469442279515 -999847.60954078182
 17289.852995910009 2579.8847980427304 -999847.19091359584
 17330.920246283524 2590.7494024950192 -999846.45182195376
 17351.651887556411 2657.5088834706658 -999845.9170408746
 17329.434185110651 2772.198488990241 -999845.99095378758
 17246.1690610439 2929.1265206675262 -999846.98322820559
 17086.659923917821 3124.9606600094889 -999849.12895572314
 16836.769338129801 3359.1382357255079 -999852.60883220565
 16481.123161322932 3634.6142971054105 -999857.57093610719
 16000.154777320555 3958.9512977912764 -999864.15164847451
 15366.336626665607 4345.7201897213154 -999872.48707758158
 14539.356964075276 4816.0358569264863 -999882.69956915232
 13459.876967171705 5399.9011486065738 -999894.83085953293
 12041.342216905581 6136.7550553122901 -999908.66898682632
 10159.467960229313 7074.2736862806778 -999923.36699497956
 7640.2519135425009 8263.831931485578 -999936.66581064335
 4252.8236094032336 9749.6520616295784 -999943.42728777626
 -267.22963011689018 11545.463293786568 -999933.31320926431
 -6069.5564458259496 13580.616634681706 -999889.35754731006
 -12610.064760502235 15516.88998486574 -999800.08621320559
 -17668.991478314285 16075.749612573471 -999714.64779432584
 -0 -0 0
 0 0 -0
 43079.353650016055 13350.059254652171 -998982.45490448643
 37846.589919302322 12095.8127368027 -999210.35170063982
 31887.315356411033 10211.805597362933 -999439.30188171123
 27015.223332156442 8417.4211057230714 -999599.58219791332
 23445.873845298673 6912.7048528743117 -999701.20811732917
 20962.880064165889 5710.1903203348202 -999763.94783264748
 19298.764275333368 4775.3849613229586 -999802.35716661322
 18229.433991413352 4064.6962257005403 -999825.56777717255
 17584.162925136978 3536.5554284417208 -999839.13205571403
 17235.795635460607 3155.1151183616203 -999846.47451366391
 17089.272226451892 2891.1673037917053 -999849.78768132569
 17072.596305743726 2721.7594246481594 -999850.54807256837
 17130.465154143392 2629.194332178809 -999849.80597126018
 17219.939350270219 2599.8567430790258 -999848.34571733372
 17307.488246890094 2623.1381787035307 -999846.77325912262
 17366.920268306785 2690.626817452654 -999845.56337852683
 17377.824252539576 2795.6128241964775 -999845.08588740148
 17324.253497966754 2932.9161904078824 -999845.6222054275
 17193.39416236167 3098.9938039237773 -999847.380070869
 16974.001626450583 3292.3089200248332 -999850.5108118715
 16654.375512104067 3513.9372966495807 -999855.13151704986
 16219.678804192561 3768.4124926062573 -999861.35093160521
 15648.352471576767 4064.7666393970267 -999869.29482662538
 14907.317885833183 4417.7018620615063 -999879.12058593798
 13945.475922822785 4848.7413004316613 -999891.00076412701
 12684.880034201115 5387.153559149795 -999905.03168803407
 11008.984548686733 6070.3101374289017 -999920.97367444087
 8748.4041493569694 6942.8950404584193 -999937.62887156941
 5668.9309454291524 8053.4032548339292 -999951.50178293686
 1481.6674445889955 9442.4239099352162 -999954.32160288631
 -4056.1391156537525 11100.394882997134 -999930.16204578814
 -10740.138638928525 12817.056926699184 -999860.17646156601
 -16686.677802167946 13874.807610110371 -999764.49451743846
 0 0 0
 -0 -0 0
 41584.986856198266 11817.08834839044 -999065.08561311255
 36014.498871132229 10284.959308618176 -999298.34157927101
 30155.73236180899 8591.3096443828072 -999508.28971265524
 25563.310977439454 7130.3101281026957 -999647.77587375615
 22282.379377966648 5959.9879552489974 -999733.95166555641
 20049.976958915599 5048.5792975623899 -999786.23228719435
 18592.468628377075 4349.7972365427968 -999817.6830674198
 17689.671056160078 3821.8017393062814 -999836.22127295961
 17176.959387632236 3430.3299534305806 -999846.58068255987
 16933.422513164664 3148.2248957719685 -999851.66293905629
 16869.708892488281 2954.3200361774125 -999853.33170170826
 16918.68576646562 2832.2611812280466 -999852.85735878977
 17028.967063327877 2769.3954580705258 -999851.16128829552
 17160.626765817251 2755.7852599373696 -999848.94785992836
 17282.415280241221 2783.4165230770318 -999846.77361810813
 17369.918459670596 2845.6325542178447 -999845.08215426572
 17404.259780668574 2936.8184716716469 -999844.22128587193
 17371.019728806979 3052.3158825129826 -999844.45342329843
 17259.128780457631 3188.5582736495521 -999845.96592168882
 17059.497407704239 3343.3930480829499 -999848.88621787378
 16763.188975756646 3516.5863016538697 -999853.30379818508
 16358.908799331284 3710.4845692910994 -999859.29930523538
 15829.571175595469 3930.830591613581 -999866.97777617234
 15147.58608351365 4187.6981092968081 -999876.49928398058
 14268.392524605373 4496.5334266896771 -999888.09081912076
 13121.588470799239 4879.2751438654377 -999902.0034933791
 11599.069450826943 5365.5603148708642 -999918.33284042869
 9540.3634119688995 5993.9328779510097 -999936.52510277985
 6718.6954485469169 6812.4385425297023 -999954.2238585595
 2842.3751616630898 7875.4541481803899 -999964.94844839443
 -2377.7846534190294 9224.5815900387515 -999954.62558789679
 -8914.1752406765663 10815.47452022035 -999901.7766714294
 -15156.58209108458 12277.719872888676 -999809.74970943283
 -0 0 -0
 45922.89307553754 11963.167860559721 -998873.35058370279
 41049.923038085777 10741.311222002787 -999099.35844829725
 34536.235347516631 8953.3019053753414 -999363.34074900497
 28775.346150294685 7431.9660138559229 -999558.27510710934
 24441.44955036863 6254.1114620629178 -999681.70015945437
 21404.336045907654 5357.5470021924457 -999756.54590932943
 19371.083053075108 4677.5333270699675 -999801.42119489168
 18070.462847059734 4163.1914702576178 -999828.04832094768
 17290.261804772515 3776.8133537158565 -999843.37899873778
 16873.345001740701 3490.7555963817113 -999851.5414069324
 16704.879291358891 3284.6604219501569 -999855.06850431755
 16700.28006434449 3143.3858588842522 -999855.59945979924
 16796.091014367095 3055.5034572210961 -999854.2669935755
 16943.697913036889 3012.1766636250809 -999851.90798076626
 17105.226479502315 3006.3229086512333 -999849.17525077448
 17250.940937363775 3032.0028734797461 -999846.5942310103
 17357.604004227898 3084.0272768240084 -999844.58910322061
 17407.365882948969 3157.7562590375646 -999843.49384712486
 17386.868924807917 3249.0863851428503 -999843.55787625758
 17286.295102231397 3354.5937453029856 -999844.95333148644
 17098.147630706346 3471.8266365480436 -999847.78829950129
 16815.550090946315 3599.7192748400366 -999852.12871518231
 16429.867535127167 3739.1287239185162 -999858.02910671488
 15927.386185041658 3893.4773199306073 -999865.57056619949
 15284.73239717815 4069.5200137025818 -999874.90015621716
 14462.554569183805 4278.2521044924797 -999886.25906863215
 13396.890267311017 4536.039004260394 -999899.96883754199
 11987.632749518269 4866.0845909223408 -999916.30543851864
 10084.163802315556 5300.421991141483 -999935.10547791247
 7470.6916854248584 5882.4686605773986 -999954.7916422016
 3861.8414754548194 6669.4570921807963 -999970.30182026583
 -1056.4226964756465 7730.9552424671438 -999969.55768769549
 -7428.4178059349142 9123.8979566191574 -999930.78415207204
 -14560.821564811306 10719.721697787736 -999836.52165845572
 -20012.318860865966 11476.567220627867 -999733.86233469239
 45515.510440912294 9573.5778896186712 -998917.75683271082
 39887.213348787482 8787.7730337339435 -999165.54447017249
 33249.308114361636 7572.9971357541845 -999418.39748140424
 27703.247752508487 6481.44340696789 -999595.17853745422
 23606.955439824589 5629.4301698688232 -999705.46721063042
 20765.657164934997 4986.4075742360192 -999771.93560432189
 18883.067493387316 4503.3556883656365 -999811.55701941357
 17696.507100832074 4140.1052716670347 -999834.8329423063
 17002.780583077427 3867.5351307523392 -999847.96225448977
 16651.92235503938 3665.1625408324303 -999854.62946641946
 16534.389550182612 3518.572923289054 -999857.1065941304
 16569.424711416086 3417.4577158676429 -999856.87733169727
 16696.312987945079 3354.2162042108062 -999854.98066782858
 16868.386140441511 3322.9761923153133 -999852.19676622329
 17049.134946927785 3318.9064355977112 -999849.14455013303
 17209.796659314794 3337.7601603863795 -999846.32932068955
 17327.874238509263 3375.5996807501383 -999844.16290798504
 17386.180546677904 3428.6880544455662 -999842.97008291434
 17372.070659232373 3493.5156734845914 -999842.99092870078
 17276.612872848469 3566.954998590807 -999844.38563192403
 17093.466305084348 3646.5130973505379 -999847.24650913931
 16817.278864745913 3730.6804242967105 -999851.6195692023
 16441.389434019649 3819.353529276244 -999857.53647812107
 15954.6097908255 3914.3449631367339 -999865.0550598976
 15336.757653057633 4019.9821273675057 -999874.30390443921
 14552.525155736354 4143.8475537637996 -999885.51971665386
 13543.118454268661 4297.7221632305327 -999899.05166808784
 12215.135406907628 4498.8533273791018 -999915.2718034311
 10426.619343502853 4771.6295727885017 -999934.25641903386
 7972.2791135033131 5149.5184342431312 -999954.96159858734
 4576.2539097641375 5675.9921792926025 -999973.42015322263
 -80.309178290295279 6398.8176227503081 -999979.52413210273
 -6216.6198961943492 7335.3611702140979 -999953.77198826976
 -13483.281405479771 8338.8638646047693 -999874.32433880819
 -19720.992672981491 8868.6523252401785 -999766.18739279557
 45086.586158141217 7298.2571548670267 -998956.42306914751
 39102.734400748159 6950.9690476427095 -999211.01885021396
 32403.950973293122 6324.4442302328016 -999454.84408576414
 26987.333309818288 5692.8131604316604 -999619.56549436599
 23048.210470134276 5168.5171065718332 -999720.99429042893
 20339.541252812516 4762.2374478209786 -999781.78826987837
 18558.242572954499 4453.7180602134276 -999817.86142679176
 17446.693767702232 4220.0920140814242 -999838.88887158642
 16808.22528069789 4043.2208473205474 -999850.55679741129
 16498.286525071479 3910.1646495495797 -999856.24824479152
 16411.329730823356 3812.0018515816714 -999858.05837546242
 16469.409232562957 3742.5496902289578 -999857.36576841108
 16613.743228901661 3697.3503755395977 -999855.14607673255
 16798.963109317287 3672.9340231404121 -999852.14126595424
 16989.42482666425 3666.3172155161651 -999848.94737261906
 17156.94800036477 3674.6800631328333 -999846.05608150817
 17279.472044393297 3695.1985082825609 -999843.87048871361
 17340.208418742666 3724.9965455674724 -999842.7084160439
 17326.976105036632 3761.210474222019 -999842.80224184447
 17231.448775182642 3801.13504827001 -999844.30215181655
 17048.107635234239 3842.4478260353858 -999847.28714977333
 16772.692192408162 3883.4848951191229 -999851.78668725118
 16399.966048529088 3923.5723365651334 -999857.81323832588
 15920.557199346284 3963.3994053090928 -999865.40460384777
 15316.589234745983 4005.4585701200308 -999874.67134429258
 14555.681974926594 4054.5678101575913 -999885.83978478145
 13582.803912195492 4118.5319279752975 -999899.26749280153
 12309.393282319381 4208.9649823125219 -999915.37814497028
 10599.538130854828 4342.2111121810358 -999934.39534504968
 8254.5321019674029 4539.8532214554671 -999955.62523169257
 5002.1717166706558 4827.000391586007 -999975.83888078842
 512.06749048795859 5222.9682562069856 -999986.22909992107
 -5496.9724373342087 5711.776581004252 -999968.57895751495
 -12843.333963488603 6179.8707899763876 -999898.42382600112
 -19440.192319217353 6393.7544829707713 -999790.57748420665
 44873.079623814665 5632.1938897364562 -998976.81910896371
 38740.002283739203 5549.0817561906024 -999233.91651540704
 31986.760562721116 5322.2719463466947 -999474.12201118656
 26612.070460205905 5056.8234664356869 -999633.04579343018
 22746.065365068458 4817.6783189286252 -999729.66670296609
 20105.978733863791 4623.633989448439 -999787.16316418315
 18378.379783318593 4471.8263480514461 -999821.10296075128
 17305.809387250752 4353.6845454291315 -999840.76451819611
 16694.630851864586 4261.2379030289403 -999851.55455810239
 16403.423675900412 4188.6547112273074 -999856.68116156489
 16329.115157351325 4132.0621670740638 -999858.13296708523
 16395.526737339114 4088.9475259958017 -999857.22341299045
 16545.063301906132 4057.5742133871495 -999854.88795716676
 16733.1205703714 4036.5347122440539 -999851.84355658107
 16924.527707561825 4024.4401968727889 -999848.67067120573
 17091.404013530617 4019.7398550441148 -999845.85091920244
 17211.904673771587 4020.6404481487903 -999843.78019162954
 17269.457341434554 4025.1200807430801 -999842.76976506063
 17252.15730607084 4031.0086962146006 -999843.0447011058
 17152.072411272624 4036.13212722156 -999844.7459728187
 16964.229834829664 4038.4922840862305 -999847.94118214922
 16685.104256376839 4036.4832189539611 -999852.6461930162
 16310.404467912591 4029.1201561154057 -999858.85848796705
 15831.952589765397 4016.2906730883365 -999866.60044549173
 15233.356524672474 3999.018861860221 -999875.9686566802
 14484.092569778357 3979.768482886373 -999887.17988843762
 13531.451047023496 3962.7883629324383 -999900.5931296132
 12289.737049759957 3954.5045905946863 -999916.65865545569
 10626.289506940695 3963.8318941674233 -999935.68293567223
 8345.0793123949679 4001.9711003973712 -999957.17102212994
 5172.8084203890367 4080.4294992350474 -999978.29583853844
 766.16923537440766 4204.5231621018038 -999990.8674431392
 -5194.601299484204 4358.6948453859095 -999977.00868399173
 -12590.724316732249 4487.5552446406618 -999910.66376407153
 -19324.081649833664 4511.6828250363942 -999803.092907037
 44912.420179996894 4353.7520890251672 -998981.44094688911
 38714.514876632726 4440.1164418697617 -999240.44739184261
 31914.794478090433 4492.0295222473405 -999480.49884136952
 26530.364327292977 4513.3335850940039 -999637.81920684187
 22674.426291294498 4518.3338566492175 -999732.69179892307
 20048.378327875758 4515.6631968775418 -999788.81335625809