# OOMMF OVF 2.0
#
# Segment count: 1
#
# Begin: Segment
# Begin: Header
#
# Title: Oxs_TimeDriver::Magnetization
# Desc: Oxs vector field output
# Desc:  MIF source file: /mnt/gpfs/work/plgrid/groups/plggspinsym/MF/switching-obrazki/p-ap/Anisotropy.mif
# Desc:  Iteration: 23700, State id: 166050
# Desc:  Stage: 0, Stage iteration: 23700
# Desc:  Stage simulation time: 3.48946e-09 s
# Desc:  Total simulation time: 3.48946e-09 s
# meshunit: m
# meshtype: rectangular
# xbase: 1.0000000000000001e-09
# ybase: 1.0000000000000001e-09
# zbase: 3.4999999999999998e-10
# xnodes: 35
# ynodes: 35
# znodes: 5
# xstepsize: 2.0000000000000001e-09
# ystepsize: 2.0000000000000001e-09
# zstepsize: 6.9999999999999996e-10
# xmin: 0
# ymin: 0
# zmin: 0
# xmax: 7.0000000000000005e-08
# ymax: 7.0000000000000005e-08
# zmax: 3.4999999999999999e-09
# valuedim: 3
# valuelabels: Magnetization_x Magnetization_y Magnetization_z
# valueunits: A/m A/m A/m
#
# End: Header
#
# Begin: Data Text
 -0 0 -0
 0 0 -0
 -0 -0 0
 -0 0 0
 0 0 0
 -0 0 -0
 0 0 0
 0 -0 0
 -0 0 0
 0 0 0
 0 0 0
 -0 -0 0
 0 0 0
 384.60345793763895 -4587.6181241815157 -999989.40286391368
 288.01748656222293 -6098.6421860927157 -999981.36163101229
 970.07547862315676 -7577.5417401277236 -999970.81948161998
 1922.7227022836807 -8732.9169196857038 -999960.01885049592
 2849.6568208038284 -9490.7657050877206 -999950.90120582154
 3592.6141731384728 -9783.8554281851084 -999945.68317302282
 4054.6993579470031 -9528.1586608185062 -999946.38536556088
 4245.1204197445913 -8677.3524083193079 -999953.34016533173
 4474.5688506162887 -7484.822639433899 -999961.97710895853
 0 0 0
 -0 0 -0
 -0 0 -0
 -0 0 0
 0 -0 0
 -0 0 0
 -0 -0 0
 0 0 0
 0 -0 0
 0 -0 -0
 0 -0 0
 -0 -0 0
 0 0 -0
 -0 -0 -0
 -0 -0 -0
 -0 -0 -0
 -0 0 -0
 0 0 -0
 0 0 -0
 -0 -0 0
 0 0 0
 0 0 -0
 0 0 0
 1716.111132695982 -1783.2621664238443 -999996.93746462336
 810.82830553491749 -4287.6900020822532 -999990.47909062868
 140.79469522465197 -6931.9040015887194 -999975.96415302239
 -372.21134545608015 -7990.6802939098843 -999968.00473172881
 -156.80824513410593 -9011.4701857346245 -999959.38358328631
 739.43592122470352 -9911.4142695207447 -999950.6073310303
 1852.6587152027957 -10611.837630322536 -999941.97659553867
 2952.0185407527497 -11020.423478175331 -999934.91580847232
 3935.7377106761019 -11044.017818373717 -999931.2674574689
 4783.2675333847765 -10580.030778285973 -999932.58937812131
 5615.8874504412597 -9553.9161587683648 -999938.59036151553
 6807.6317069592096 -8115.8460992198297 -999943.89302232175
 8562.3118116137593 -6907.1006340074355 -999939.48755775858
 8194.1276293765786 -5716.5066535590713 -999950.08766641608
 7077.0945371473663 -4326.5265288090877 -999965.59735878301
 -0 0 -0
 0 -0 0
 -0 0 -0
 0 -0 -0
 -0 0 0
 -0 0 0
 -0 0 -0
 -0 0 0
 -0 0 -0
 -0 0 0
 0 -0 -0
 -0 0 -0
 -0 0 0
 -0 0 0
 -0 -0 0
 0 0 -0
 0 -0 -0
 -0 -0 0
 3566.9880090035685 -501.07008166294588 -999993.512741616
 1797.1414201381067 -3347.8734920994148 -999992.78098684165
 443.11602975547089 -5338.8148888611986 -999985.65024892567
 -351.67635048491752 -7400.9891631994278 -999972.55046483676
 -706.75725742018449 -9133.6230347346154 -999958.03783180751
 -759.88714496102511 -10027.002955846421 -999949.43961344892
 -224.15978821131421 -10489.25772086795 -999944.96109778702
 801.86198890912533 -10794.419352953259 -999941.41704811051
 2032.4831399985205 -10984.390530784496 -999937.6041418548
 3299.2559940056699 -10996.90036973156 -999934.08937396668
 4535.4821282455032 -10753.762853309807 -999931.89067373937
 5744.5108555638271 -10190.638765305093 -999931.57339719275
 6993.6370071487581 -9307.0823308195286 -999932.23133365368
 8325.1511069234439 -8264.5875012449342 -999931.19185896055
 9386.7321506408698 -7293.8117443621159 -999929.3422886288
 9320.9531254850735 -6075.2808483435338 -999938.10348213383
 8659.1105233424842 -4268.8347366314383 -999953.39734156395
 7903.384913167567 -2252.2107040965479 -999966.23145677208
 6015.0994142427189 -742.74883406742231 -999981.63328293501
 -0 0 -0
 -0 -0 -0
 0 0 -0
 -0 0 0
 -0 0 -0
 0 0 -0
 0 -0 -0
 -0 -0 -0
 -0 -0 0
 0 0 0
 0 0 0
 0 0 -0
 -0 0 0
 0 0 0
 -0 -0 -0
 3872.630356520277 -2325.7520343634192 -999989.79675374494
 1833.6455635499112 -4074.0062717274432 -999990.02005862317
 197.93627731643483 -6371.8964744686409 -999979.67967181664
 -755.86194662428068 -8069.8259017956689 -999967.15275184519
 -1124.121136511709 -9298.9396136417072 -999956.13207466854
 -1074.4277260138892 -10120.723165429359 -999948.2069425747
 -699.31875271478805 -10461.001879130523 -999945.03768605553
 70.807455191645502 -10478.972287367285 -999945.09155558364
 1175.3630163982489 -10354.561073132407 -999945.69931909931
 2466.3689785533907 -10153.277412301155 -999945.41250102781
 3835.3274553335627 -9857.7315080712215 -999944.0561315543
 5231.0597700602802 -9428.4694539188313 -999941.86829907191
 6639.5653565039529 -8841.5244213857259 -999938.86994044925
 8049.2824085706825 -8119.6491648643478 -999934.63803898031
 9369.0541174161626 -7340.7300837879429 -999929.16474457423
 10322.98332125964 -6527.0509982228295 -999925.41402877425
 10589.201785544414 -5472.4503509656261 -999928.95802286931
 10229.495893063005 -4006.7798326749048 -999939.64974349644
 9196.2855913436779 -2199.5183658178053 -999955.29422583745
 7398.4068278946306 -39.154023772891968 -999972.63064714486
 6068.0898375412835 2187.6316975238651 -999979.19606023794
 -0 -0 -0
 0 -0 0
 -0 0 -0
 -0 -0 -0
 0 -0 -0
 0 -0 -0
 0 0 -0
 0 -0 -0
 -0 0 -0
 0 0 -0
 -0 0 0
 -0 0 0
 -0 0 -0
 4466.4074921097499 -3125.2638431372775 -999985.14185463055
 2091.0155122437577 -5098.7191924414992 -999984.81524307374
 126.78253743708892 -6986.0517904322178 -999975.5892053413
 -943.51820959088559 -8424.0500683790251 -999964.07193150371
 -1359.2366579182133 -9342.9804818186421 -999955.42960245174
 -1319.2382313894168 -9842.7810844513879 -999950.68841969012
 -949.20672476745187 -10007.778487556639 -999949.47041154909
 -306.88935307231736 -9876.9852896474586 -999951.1742982819
 607.64681243338805 -9543.4171161962404 -999954.27593220363
 1756.2007579037138 -9110.8222647085549 -999956.95341177483
 3064.5203474524601 -8635.0442695394868 -999958.02148165356
 4467.595171329287 -8125.3642474996141 -999957.00860048505
 5923.3759792403544 -7573.1142931895929 -999953.77971029771
 7400.2761626302681 -6975.7713911656383 -999948.28592593479
 8848.9926492614595 -6348.7084724574988 -999940.69285624381
 10162.640077608792 -5710.5963818859645 -999932.05260938406
 11160.930128893091 -5026.20106621787 -999925.08266444644
 11665.173241944651 -4167.573662976486 -999923.27458810539
 11588.874759644414 -3003.9100747789726 -999928.3346850751
 10826.148198852612 -1438.4391981944232 -999940.36092551518
 9365.2000035084257 643.80579172793182 -999955.938300782
 7604.0472274765607 3137.641210575729 -999966.16626433702
 6150.0890641520664 5435.4559866033196 -999966.31554403913
 0 -0 -0
 -0 0 -0
 0 0 0
 0 0 -0
 0 -0 0
 -0 0 0
 -0 0 0
 0 -0 0
 -0 -0 -0
 -0 -0 -0
 0 0 0
 5450.0561312151685 -3132.89044981593 -999980.2407475838
 2787.2159268147357 -5376.0889700080979 -999981.66437928437
 485.39026020143393 -7345.3433309821385 -999972.90479674772
 -851.28047309075248 -8587.7798091124969 -999962.76198641839
 -1386.4172257657274 -9269.8069845237897 -999956.07329809538
 -1395.4404524582555 -9534.6360736635561 -999953.57065260096
 -1059.5997047491137 -9484.2436512778859 -999954.46214856661
 -474.91377187288634 -9190.9150484999609 -999957.64987197379
 317.33846413106824 -8709.6809361446994 -999962.01965589169
 1303.3318449922215 -8106.8389825134591 -999966.28967571375
 2459.6419084130912 -7449.1053760944014 -999969.2300219934
 3748.4141239077712 -6781.7434390638773 -999969.97822308738
 5131.0956546575189 -6125.8259081895694 -999968.07254748151
 6573.646630028762 -5489.440649431519 -999963.32593317633
 8038.7677430909853 -4878.6337299938223 -999955.78759568208
 9469.9523136652151 -4299.4779122680675 -999945.9157838783
 10775.892266284869 -3745.277329981081 -999934.92440437688
 11832.343058729615 -3171.8230858849456 -999924.96478288423
 12511.831084461244 -2488.0786459917708 -999918.62846311904
 12705.902875256714 -1582.5182592216722 -999918.0244740484
 12307.066107929439 -335.06466727956763 -999924.20905560814
 11249.059360741152 1372.4062225888028 -999935.78552057943
 9568.4537855464478 3557.328395928911 -999947.8936958852
 7430.6437424253527 6013.7988573971925 -999954.30883459654
 5453.7380696249438 8113.9152139777689 -999952.20941851416
 0 -0 0
 0 0 0
 0 -0 -0
 0 -0 0
 0 -0 -0
 -0 -0 0
 0 -0 -0
 0 -0 0
 0 0 -0
 6942.6754979924399 -2597.0974268686168 -999972.52679355384
 3928.874272147687 -5055.4937586342976 -999979.50275483634
 1275.162750692085 -7196.9744775552035 -999973.28840240953
 -375.35002280755219 -8494.6399244400254 -999963.84944902628
 -1138.2658895777404 -9092.6280547662973 -999958.01335147209
 -1274.2730590363572 -9215.6279093268859 -999956.72327876673
 -1007.9882877026022 -9013.0129282665785 -999958.87393310689
 -481.71773880972785 -8575.8654409548635 -999963.11055956397
 229.96079076875526 -7966.165793974822 -999968.2431560402
 1094.5966591133345 -7235.1142357489816 -999973.2271316814
 2098.872112349361 -6434.7664725621871 -999977.09399580746
 3229.52902131978 -5614.8256372406458 -999979.02171763789
 4467.4776468084756 -4814.1853541146784 -999978.43239884486
 5790.0411255122899 -4058.4705730846958 -999975.00180773146
 7171.2345110715078 -3363.4293896111817 -999968.62987712212
 8576.777445244039 -2738.4088730330391 -999959.46918137569
 9956.1257865018197 -2185.0920031473156 -999948.04911668319
 11236.803420143346 -1689.660893649881 -999935.43756332656
 12327.244812925899 -1212.2932859417222 -999923.28174731054
 13127.759027593207 -684.2509076185537 -999913.59313873143
 13536.825732509731 -16.138459014470381 -999908.37284655147
 13447.219888181391 894.80625136698086 -999909.1816755418
 12751.56405606847 2152.1330962214442 -999916.37947243394
 11348.089176063006 3825.2481156172953 -999928.29160340584
 9166.9212586200756 5901.4265268475683 -999940.5685937471
 6364.0182143755064 8172.0716168850322 -999946.35682003247
 3700.5241879776768 9960.8946686345807 -999943.5417553006
 0 -0 0
 0 -0 0
 0 0 -0
 0 0 -0
 0 0 -0
 0 -0 0
 -0 0 -0
 9238.6020626127647 -1660.5245624012759 -999955.94447460829
 5653.273070084766 -4264.2714367775807 -999974.92793204996
 2507.7843114029988 -6583.5647541799226 -999975.18353855913
 468.05465765225051 -8031.8061915712487 -999967.63498332235
 -588.74431751703708 -8705.7344748309442 -999961.93105906912
 -927.02415491378338 -8822.2807603734127 -999960.65322011616
 -785.51539035009421 -8563.1107530636928 -999963.02736641327
 -339.53697472388853 -8048.0588259400629 -999967.55620558874
 301.15944574126416 -7353.2396750578991 -999972.91921795032
 1077.7993255315084 -6532.5960829710275 -999978.08152830554
 1964.0863102014173 -5631.896147532384 -999982.21189716668
 2949.7350965172163 -4695.2696230662086 -999984.6266348433
 4028.292150424867 -3764.3716377016153 -999984.80106875824
 5191.2959792186948 -2874.6494253846295 -999982.39326337026
 6426.4216123124734 -2053.2929300240116 -999977.2422877457
 7715.6050777184491 -1319.3819623145687 -999969.36386547459
 9031.5142704136451 -684.04044657330553 -999958.9810780494
 10333.415256517934 -148.48949714654958 -999946.59781410603
 11564.86788393526 300.34850332572279 -999933.07957162987
 12655.085601091629 694.40869238452115 -999919.68007685337
 13522.441022294701 1085.4854097641305 -999907.97842112649
 14075.172190084562 1541.9458723010246 -999899.75094043615
 14207.249131707085 2144.2510460099684 -999896.77280185325
 13792.77815061804 2978.1239196550951 -999900.44006831339
 12679.573219726237 4122.8302749473132 -999911.11139615276
 10700.462811883728 5633.2990853943611 -999926.88034527085
 7760.4641708707286 7485.5963352186182 -999941.86883206293
 4072.7752576200614 9422.6198669549758 -999947.31198025809
 547.30181756170464 10681.581604842731 -999942.80050167849
 0 0 0
 0 0 0
 -0 0 0
 0 -0 0
 -0 0 -0
 12648.2827152599 -686.28686182125125 -999919.77175906382
 8180.0017333734568 -3137.7688669339245 -999961.62025258737
 4273.4718217762047 -5565.567975532872 -999975.38064279291
 1684.4927028353138 -7195.371699991636 -999972.69418241282
 242.21288872424097 -8032.008421826933 -999967.71356560732
 -362.51369766720785 -8257.7537525815151 -999965.83845988521
 -397.93964113066346 -8050.6506696489951 -999967.51380624215
 -65.335729250009962 -7545.3757642507326 -999971.53111267055
 496.7370194174087 -6833.8147066867132 -999976.52583892585
 1201.9761715767333 -5978.7195761477224 -999981.40490986779
 2003.162309766519 -5027.5756043181109 -999985.35530491814
 2878.8066499546021 -4021.8346913518008 -999987.76858418994
 3821.5775024152463 -3001.0204541033368 -999988.19464113016
 4829.6260731835919 -2002.6080617678233 -999986.33204306557
 5901.2102617195496 -1060.0005591815982 -999982.02589659661
 7031.4697778484278 -200.72708951915138 -999975.25876463484
 8209.7135597128417 554.6302066312104 -999966.14592125127
 9416.508143592464 1193.4920922990327 -999954.95146081829
 10621.022974521107 1713.0813724028758 -999942.12793700525
 11779.55545379515 2122.8953351418522 -999928.36512857606
 12835.550181746259 2446.7462987313343 -999914.62739780033
 13719.870173635534 2723.0258879923704 -999902.17036089674
 14348.980959065691 3003.0861278030256 -999892.53833556827
 14619.652454607189 3348.8162980354937 -999887.5192697969
 14400.573929946047 3829.6789226657093 -999888.97235134919
 13522.960729201639 4518.7808662429243 -999898.34990992944
 11780.973101692183 5484.8292746308834 -999915.55909516942
 8968.4837085738945 6763.7507559301675 -999936.90699747694
 5001.0558878658676 8273.862258589048 -999953.26522959676
 231.74920586480451 9630.7533595162622 -999953.59636436845
 -3988.0861971182871 9962.1934578612345 -999942.42327745678
 0 0 0
 -0 -0 -0
 0 -0 -0
 0 0 -0
 10487.31720866172 -2310.2212945552255 -999942.33786520653
 6462.9345510414723 -4344.4647150979754 -999969.67759194004
 3273.0485199748441 -6059.6037231808468 -999976.28389682504
 1343.2308137413352 -7075.9261104512279 -999974.06316397048
 396.73618341234436 -7473.3865472631824 -999971.99515482236
 131.95128826679377 -7400.7117973373552 -999972.60565164988
 315.50616738114536 -6988.6041321494386 -999975.52963467175
 781.49215595098235 -6335.4377424832828 -999979.62554175162
 1418.3635123169965 -5511.6815405435527 -999983.80467462726
 2156.4974273031335 -4569.2125227951274 -999987.23582642165
 2957.1296001627143 -3550.0075808806455 -999989.32635838829
 3802.5646812219288 -2491.9414543183289 -999989.66531141382
 4687.8999943339568 -1431.3417954963265 -999987.98735500209
 5614.5251499345031 -402.95445574913504 -999984.15724202711
 6585.3603772232836 561.43245122502606 -999978.1586726309
 7601.2916772934077 1434.6005010807498 -999970.08069553692
 8658.1434722090489 2195.3245592151989 -999960.10775515169
 9743.9326451984889 2829.7382908844902 -999948.52285395702
 10836.5957249162 3332.8294741695045 -999935.72815496032
 11902.474029937785 3709.9301947690428 -999922.28074481699
 12895.392141095857 3977.7098135571637 -999908.9391970482
 13755.420265709348 4164.2269112614431 -999896.71848023648
 14405.939824687979 4308.1429526400234 -999886.94801065733
 14747.953787924425 4457.6952456750423 -999881.30636199319
 14651.437538698154 4669.8825189128193 -999881.75679692719
 13945.21271324591 5009.7467308305331 -999890.21071319387
 12411.489469659451 5547.5528725941494 -999907.58552291733
 9801.1516884439898 6346.2474129807097 -999931.82896103151
 5912.9727943455591 7424.029604124803 -999954.95925425063
 882.51668484715663 8667.6283244855586 -999962.04597151058
 -3825.7031010204441 9670.9263724215507 -999945.91712696245
 -0 0 -0
 -0 -0 -0
 0 0 -0
 15092.62060307001 -1260.89750773521 -999885.30489291949
 9846.6880566689433 -3117.153247743428 -999946.6616224813
 5499.4535115883746 -4817.1498054140229 -999973.27518230502
 2805.8221339702909 -5942.9175113414813 -999978.40431361611
 1373.8830549948348 -6502.7067849867926 -999977.9133810004
 798.00724617486412 -6594.6292389648752 -999977.93678142503
 783.19553210212189 -6327.0623788366192 -999979.67723669903
 1124.9661747100188 -5791.8479391735227 -999982.59432279877
 1683.9713938726647 -5059.9360714841478 -999985.78054255212
 2367.8248136835164 -4185.1959009664497 -999988.4387036293
 3118.5946940376939 -3210.327008296515 -999989.98403365747
 3903.5729232840595 -2172.1377576553264 -999990.02191821602
 4707.916530264567 -1105.0169757326044 -999988.30716135248
 5528.5692965926974 -42.391689303261572 -999984.71644544532
 6369.233957954867 983.44158043804669 -999979.23263508175
 7236.2213531220659 1942.4290402912625 -999971.93164105958
 8134.9158005861591 2808.1905594832165 -999962.96791966213
 9066.6378113137107 3559.4415900063341 -999952.56210200593
 10025.860119605946 4181.3307862873935 -999940.99756021495
 10997.894459271376 4666.6788771510228 -999928.63166614063
 11957.097554035783 5017.0029099517433 -999915.9252156578
 12865.342427986941 5243.1317371478235 -999903.49160996405
 13670.068814832779 5365.3129588133361 -999892.16550358664
 14300.976222026702 5413.0023942840044 -999883.083907402
 14664.504099610796 5424.7713997022456 -999877.75461541966
 14635.73303506364 5448.7701946276238 -999878.04567451752
 14048.503029538782 5543.8364055322963 -999885.94621613598
 12687.548821042366 5780.2879235691234 -999902.80246453651
 10293.986504787947 6237.184014201257 -999927.56306515145
 6617.4786141557315 6988.5214576944554 -999953.68369971344
 1613.5132936632701 8054.476599516006 -999966.26042160008
 -4000.7566056930323 9210.0450609266936 -999949.58323735383
 -8349.3921472469792 9539.3766458871614 -999919.64074318449
 -0 -0 0
 0 0 -0
 13411.833480537229 -2143.6307773042149 -999907.75953073846
 8672.4895894044439 -3588.8899968056885 -999955.95292638382
 4919.0306602832225 -4780.1928497842118 -999976.47617015569
 2723.9238679945456 -5453.9768511369257 -999981.41701497068
 1669.6173694517302 -5684.8896509356136 -999982.44704969495
 1360.1849521095003 -5565.095988855941 -999983.58966711594
 1522.3334799058362 -5172.7281898341353 -999985.46258625679
 1974.3487543491299 -4570.7897743675185 -999987.60483709746
 2595.3727892677061 -3809.2851631224271 -999989.37663688743
 3305.8943879491594 -2928.6356544446803 -999990.24703018926
 4055.7592156800451 -1963.3426144825523 -999989.84799994971
 4816.2942717524556 -945.01729805119214 -999987.95505335671
 5574.5644981204823 95.725617282558417 -999984.45741284534
 6328.7410989038217 1128.6038346726552 -999979.3364312523
 7084.0933905579668 2124.0160481035286 -999972.65171436628
 7849.3555778290838 3054.0243095085352 -999964.52964719199
 8633.3433331190827 3893.6085070865502 -999955.15159215324
 9441.7873883414977 4621.9542532389833 -999944.74356826057
 10274.462951449328 5223.6599828440885 -999933.57218739449
 11122.716197209673 5689.7920176557991 -999921.95267990406
 11967.396327029715 6018.7131003549403 -999910.27423352725
 12776.952043863683 6216.6168050953574 -999899.04649017821
 13505.182303411511 6297.8023451101544 -999888.96770420135
 14087.92559872281 6284.8867924420574 -999881.00819564075
 14437.984087908673 6209.3063274808064 -999876.48693746619
 14437.835579254446 6112.4721293648718 -999877.08574016928
 13930.499409975864 6047.7459585976321 -999884.67632772983
 12711.029170584463 6082.6800262610968 -999900.71044135303
 10526.748098012533 6298.9744838229371 -999924.75241636718
 7109.8004851248434 6781.4858954841666 -999951.72992805566
 2306.6564858527563 7568.3219977364615 -999968.69942913449
 -3531.3030550821686 8498.5034433356996 -999957.65177229221
 -8498.5840580310214 9036.0287700967419 -999923.05916659127
 0 0 0
 -0 -0 0
 12118.907690766529 -2600.7211100794857 -999923.18121248216
 7918.1766045426757 -3695.0532306867831 -999961.82380172971
 4742.1665164166025 -4445.9733595382268 -999978.87236561987
 2947.3857191564407 -4770.6901418067282 -999984.27659288386
 2159.9713434871651 -4761.6453143465778 -999986.3305354208
 2028.4908937265793 -4495.9772817516323 -999987.83563250198
 2305.8775908830744 -4028.3435379304974 -999989.22763041628
 2827.6383894453725 -3400.1496623374974 -999990.22167389828
 3484.878939634626 -2645.09295927218 -999990.42950520932
 4205.9760971797741 -1792.3786469338086 -999989.54851731122
 4945.3880417306373 -868.97245674376404 -999987.39393253659
 5676.7182690789114 98.83290931222318 -999983.88242098666
 6387.9917066838279 1084.5825110662543 -999979.00840104243
 7077.9496305890971 2061.5542288582815 -999972.82594237931
 7752.7261222916823 3003.2558025662684 -999965.43724883674
 8422.6201562359129 3884.3184682847973 -999956.98484471848
 9098.8784114511855 4681.5781769657251 -999947.64524820331
 9790.5513564844296 5375.1921524120462 -999937.62426136399
 10501.549892510069 5949.6920319735782 -999927.15665421332
 11228.033644358418 6394.9123956318062 -999916.51469306846
 11956.137943677008 6706.7453052749661 -999906.03075133113
 12659.865751391944 6887.7120310470209 -999896.13821743219
 13298.736593041562 6947.4121286677482 -999887.43219911668
 13814.631248988009 6903.0244433220842 -999880.74499761697
 14127.203746164345 6780.1199204953082 -999877.21850644157
 14127.390281194796 6614.0783283322753 -999878.32800381724
 13669.064889926922 6452.2725302969102 -999885.75589625724
 12560.399781943148 6356.7619424273498 -999900.90905795514
 10560.470629709278 6406.0466959400392 -999923.71660332603
 7397.6742111733511 6691.4001477294159 -999950.24855256081
 2859.7293060425973 7296.2967688261551 -999969.29252940428
 -2876.3399922733538 8232.4032193461971 -999961.97637984378
 -8098.1748062811939 9234.4174800394176 -999924.56970444089
 -0 0 -0
 19500.104650504618 -1757.8445859158521 -999808.3095779065
 13177.156332835095 -2895.4035961994928 -999908.98545267363
 8140.1513539600801 -3657.5269636526123 -999960.17942338332
 5058.364759716982 -3986.3198289057327 -999979.26088503434
 3444.9758941557743 -4014.3888202770222 -999986.00831386051
 2799.5399714670698 -3822.3802066262151 -999988.77592976217
 2765.0385912475849 -3457.7969234098437 -999990.19905298331
 3103.9484178667353 -2951.6600492488674 -999990.82656151056
 3660.3842661830377 -2327.5537432905999 -999990.59199604264
 4331.6214030363899 -1606.0476574726888 -999989.32877653395
 5049.9715444499852 -806.85730146468484 -999986.9232988474
 5771.99193251629 49.996264999348469 -999983.34066598548
 6472.0682408212206 943.58437387434481 -999978.61076185806
 7138.2826101961036 1851.9224663492751 -999972.80728255585
 7769.266037668197 2752.2282790713548 -999966.03129543155
 8371.3216000815282 3621.5092585000066 -999958.40195748082
 8955.488342363853 4437.3679838414919 -999950.05324962409
 9534.4841369053756 5178.9183574858716 -999941.13447586994
 10119.612162856074 5827.7247858981191 -999931.81321202777
 10717.798997271719 6368.7080480083787 -999922.28115111683
 11328.899089688908 6790.9739431045118 -999912.76555423555
 11943.310043121266 7088.5425325498782 -999903.55030371691
 12539.758412773715 7260.9766220329893 -999895.01082735858
 13082.942997250351 7313.9667413794241 -999887.6649369353
 13520.544459171451 7259.9869654289478 -999882.2367993088
 13779.043979016289 7119.2023661651674 -999879.72021873412
 13757.834376351164 6920.8144705924524 -999881.40512779658
 13321.489094889237 6704.9722434506921 -999888.78445330588
 12291.154141828525 6525.1389235493016 -999903.17035795515
 10439.160908291713 6450.2918053128806 -999924.70599298505
 7499.6258285299027 6565.1493470574251 -999950.3259794875
 3232.6217101496431 6962.9530280931249 -999970.53328686033
 -2352.4426786618606 7705.4740345518367 -999967.5453150199
 -8405.585693640116 8617.016613439604 -999927.54395197576
 -12922.398619724298 8733.3304465241472 -999878.36287881772
 19092.700231719984 -2659.4890326489772 -999814.18069356622
 13411.93814275443 -3167.3631013857612 -999905.03935435729
 8613.2819032414336 -3432.9724087656659 -999957.01211366896
 5657.7982743588063 -3424.6410022270566 -999978.13033720513
 4127.3642389258339 -3235.5860514674373 -999986.24782911025
 3537.1798969367082 -2916.9708657958859 -999989.48976443999
 3536.6275083551641 -2493.0680376922514 -999990.6383949935
 3893.2184031135275 -1977.4868064157399 -999990.46615275089
 4454.808123033039 -1380.6131887124643 -999989.12423676392
 5121.0941023259829 -712.85668278330661 -999986.63302593445
 5825.6359404908544 13.977871745293029 -999983.0307412761
 6525.2737587117663 786.188403204991 -999978.40112182847
 7193.9940521917451 1588.1289668702016 -999972.86177973938
 7819.1247505437213 2402.4539212655809 -999966.54419200041
 8398.5174130552987 3210.5766609080742 -999959.57773440366
 8937.9484056103429 3993.2808178592281 -999952.08224524872
 9448.397344241499 4731.4291510973526 -999944.16912436334
 9943.1287437451774 5406.7203709450496 -999935.94873152545
 10434.684204823056 6002.4632713797037 -999927.54127497738
 10931.947303065625 6504.3428421561339 -999919.08975294349
 11437.438769625436 6901.1647429616605 -999910.77547928318
 11944.88471691676 7185.5610616219146 -999902.83900053485
 12436.966933974896 7354.6612862966222 -999895.60995678301
 12882.972103187934 7410.7491248756523 -999889.54881386599
 13235.91749986837 7361.9708379764024 -999885.29935854045
 13428.601753201861 7223.1776130695744 -999883.74242214963
 13368.045873366244 7016.9908454933766 -999886.02209901973
 12928.006171391526 6775.0877191184645 -999893.47674781387
 11940.117390197855 6539.47710519262 -999907.33012409648
 10186.720613419262 6362.9056024429174 -999927.86947631324
 7405.3918118420806 6305.8472145764463 -999952.69711272814
 3333.4624546822497 6422.3320541338435 -999973.82049684168
 -2134.8541104312517 6711.9431645577388 -999975.19580081734
 -8514.4653604428986 6999.2315904115612 -999939.25547343621
 -13695.870442625532 6904.7072960102523 -999882.3671562447
 19109.609992139605 -2969.1528942752052 -999812.98598139756
 13787.460415614825 -3070.8639292261641 -999900.2328882697
 9253.2145089743371 -3018.6484333474782 -999952.63176956866
 6410.4267430835107 -2801.8626533002257 -999975.52769787493
 4914.3461087350106 -2477.2015074271417 -999984.85622284038
 4326.4999639550624 -2081.5008573112987 -999988.47430970077
 4315.2329687136398 -1629.6078328228357 -999989.36151477997
 4655.5030408662724 -1126.0759493526423 -999988.52905640507
 5198.0701167011957 -572.78755922495782 -999986.32589724637
 5843.5008776697441 27.411008916029509 -999982.92622730765
 6525.1344332598755 669.28180122143488 -999978.4871098469
 7198.9293444701707 1344.85445901291 -999973.18303181394
 7837.5934356807247 2043.6002303634689 -999967.19737561152
 8427.0034299864528 2752.8507621340495 -999960.70294080675
 8963.5885779991186 3458.3303628620406 -999953.84595035459
 9451.9188625116531 4144.7392045965371 -999946.73976504477
 9902.139392152003 4796.3539963569901 -999939.46947992803
 10327.189403559345 5397.6391922561133 -999932.10502022249
 10739.897332839799 5933.8687293303883 -999924.71906998253
 11150.126689738723 6391.7685383344879 -999917.40657404053
 11562.108713043879 6760.1769481233659 -999910.30480225477
 11972.025087773964 7030.7210234012891 -999903.61514357443
 12365.743492223295 7198.4934781874499 -999897.62979993562
 12716.467116391002 7262.7314773605394 -999892.76634825487
 12981.87805070317 7227.4989346822813 -999889.61095784279
 13100.247276303944 7102.3935074307565 -999888.96359934169
 12984.901997101864 6903.2658239428783 -999891.86277371494
 12516.580741187168 6652.8616818284454 -999899.53227211384
 11533.777882799421 6381.0343877072091 -999913.12341017544
 9823.1032460995484 6123.5723681305344 -999933.00200766872
 7117.1273602500733 5917.2657272022898 -999957.16531482083
 3122.5032874412323 5786.2082667808081 -999978.38464994496
 -2354.1926293533602 5712.9979619566329 -999980.90953345224
 -8971.4762875980123 5608.4326986920032 -999944.02748148108
 -14511.824839100191 5388.676251654415 -999880.17737531615
 19629.335589503884 -3032.1650427656764 -999802.72812163713
 14461.812411521596 -2888.3003824285847 -999891.25093815802
 10062.159966234993 -2606.939234322138 -999945.97694307601
 7270.8681931329447 -2229.5494957721912 -999971.08137423859
 5765.0178154734713 -1802.3017768251098 -999981.75797256047
 5139.496998424208 -1352.7196463847431 -999985.87776036176
 5082.8375702274689 -888.96112412116577 -999986.68716656126
 5379.1337979921791 -408.9667964020494 -999985.44872700155
 5882.3191872146381 92.021604796186722 -999982.69477676658
 6493.2928632271451 617.45785321802953 -999978.72772054118
 7144.400966480086 1167.9074146943681 -999973.79642023682
 7789.9681277248628 1740.7330776195786 -999968.14261501411
 8400.7587857844501 2330.356318771695 -999961.99762353476
 8960.5871775651522 2928.7377814143692 -999955.56419895031
 9463.8512745193129 3525.9133632537746 -999949.00042652606
 9913.2521002287358 4110.5155425637913 -999942.41388930578
 10317.36490571681 4670.2675169520853 -999935.8682349195
 10687.987049775984 5192.4609896601023 -999929.40014867787
 11037.365285219006 5664.4486920079589 -999923.04233304702
 11375.447835510122 6074.1732121354426 -999916.84834606654
 11707.303205892618 6410.750424936361 -999910.91669739981
 12030.738532982841 6665.0973856951086 -999905.41443037998
 12334.040478625237 6830.5903488330787 -999900.60230052774
 12593.583653745965 6903.7169689457269 -999896.86485295498
 12770.917382270754 6884.6983969434641 -999894.74675947696
 12808.773039122776 6778.0406414312538 -999894.99123572744
 12625.359740668173 6592.974032864593 -999898.56134751032
 12106.31933362171 6343.6711937999326 -999906.59307156154
 11094.144899318069 6049.0154115247396 -999920.16149365844
 9376.3864926473652 5731.3892864592863 -999939.6154534471
 6678.9499124228496 5413.480473875391 -999963.04224567558
 2686.4387031859751 5111.7853514369872 -999983.32620979997
 -2837.4394320877313 4827.6894758623839 -999984.32105298224
 -9588.8251786231958 4547.9342631560403 -999943.68377705757
 -15283.723356791643 4290.1481691735044 -999873.99327567278
 20591.103401441826 -3209.9009118556055 -999782.82791656686
 15462.795848628472 -2869.0718602367169 -999876.32753816328