# OOMMF OVF 2.0
#
# Segment count: 1
#
# Begin: Segment
# Begin: Header
#
# Title: Oxs_TimeDriver::Magnetization
# Desc: Oxs vector field output
# Desc:  MIF source file: /mnt/gpfs/work/plgrid/groups/plggspinsym/MF/switching-obrazki/p-ap/Anisotropy.mif
# Desc:  Iteration: 38700, State id: 271050
# Desc:  Stage: 0, Stage iteration: 38700
# Desc:  Stage simulation time: 5.69786e-09 s
# Desc:  Total simulation time: 5.69786e-09 s
# meshunit: m
# meshtype: rectangular
# xbase: 1.0000000000000001e-09
# ybase: 1.0000000000000001e-09
# zbase: 3.4999999999999998e-10
# xnodes: 35
# ynodes: 35
# znodes: 5
# xstepsize: 2.0000000000000001e-09
# ystepsize: 2.0000000000000001e-09
# zstepsize: 6.9999999999999996e-10
# xmin: 0
# ymin: 0
# zmin: 0
# xmax: 7.0000000000000005e-08
# ymax: 7.0000000000000005e-08
# zmax: 3.4999999999999999e-09
# valuedim: 3
# valuelabels: Magnetization_x Magnetization_y Magnetization_z
# valueunits: A/m A/m A/m
#
# End: Header
#
# Begin: Data Text
 -0 0 -0
 0 0 -0
 -0 -0 0
 -0 0 0
 0 0 0
 -0 0 -0
 0 0 0
 0 -0 0
 -0 0 0
 0 0 0
 0 0 0
 -0 -0 0
 0 0 0
 19645.111802900767 28371.945022326523 -999404.37377364992
 17296.629715939154 27479.880163099235 -999472.70237195131
 15164.294988470048 26559.816506664967 -999532.20073424082
 13505.23028963827 25885.553041509142 -999573.68257600651
 12044.978074570379 25513.749851102188 -999601.90429576428
 10474.073469615092 25468.863194137313 -999620.74347852101
 8494.9957718734495 25778.94010408943 -999631.57277766382
 5904.6465937374405 26429.98002566216 -999633.22839151672
 3197.7647801934372 27168.372677213953 -999625.75688428641
 0 0 0
 -0 0 -0
 -0 0 -0
 -0 0 0
 0 -0 0
 -0 0 0
 -0 -0 0
 0 0 0
 0 -0 0
 0 -0 -0
 0 -0 0
 -0 -0 0
 0 0 -0
 -0 -0 -0
 -0 -0 -0
 -0 -0 -0
 -0 0 -0
 0 0 -0
 0 0 -0
 -0 -0 0
 0 0 0
 0 0 -0
 0 0 0
 24602.835676684004 26852.127582789522 -999336.61181853223
 22444.958378116968 24992.766736196856 -999435.63347234845
 20663.645568955253 22673.650314130566 -999529.34891039261
 18859.862917634087 21991.689065017217 -999580.24749531515
 16691.368255824709 20668.764942088103 -999647.03789963643
 14870.029632856958 19630.169794011668 -999696.72333792131
 13426.250597637927 18946.32589347682 -999730.34990942804
 12140.724524343388 18599.692465964006 -999753.29669283691
 10773.541302764901 18604.322667575296 -999768.87828431535
 9108.36146981409 19017.793978559221 -999777.65591331583
 7031.5576790118776 19917.97382769495 -999776.89086876076
 4849.2097241735009 21205.47028506079 -999763.37860267714
 3508.1051835140006 21631.649612930818 -999759.85363138304
 1456.3148095730912 23279.469945386369 -999727.935703628
 -1239.8424279413646 24659.094753015241 -999695.14945142949
 -0 0 -0
 0 -0 0
 -0 0 -0
 0 -0 -0
 -0 0 0
 -0 0 0
 -0 0 -0
 -0 0 0
 -0 0 -0
 -0 0 0
 0 -0 -0
 -0 0 -0
 -0 0 0
 -0 0 0
 -0 -0 0
 0 0 -0
 0 -0 -0
 -0 -0 0
 29298.525861640017 24888.895150121982 -999260.79642931093
 26539.911759847073 22700.591672691629 -999389.97204369085
 23683.981180746308 21145.813526287322 -999495.83471155178
 21066.844486508962 18746.772610774846 -999602.29420508083
 19049.167385570083 16443.627376221488 -999683.31802657805
 17304.095511516844 14772.420432462102 -999741.13843189157
 15668.465454958081 13407.803005197633 -999787.34239280131
 14302.369480571489 12435.427545988656 -999820.38505373022
 13181.970863478869 11817.699155836908 -999843.27653428586
 12171.05452413407 11520.524706475329 -999859.56160965818
 11115.973491837387 11551.601110365844 -999871.48956509202
 9886.7595351242126 11958.903518065166 -999879.61105952179
 8426.8694444593184 12803.376577529802 -999882.52380946255
 6830.6515522789514 14055.305230548398 -999877.8878414341
 5213.7412243445042 15445.016813232691 -999867.12535120628
 3020.1305724240897 17318.601159320297 -999845.46049137518
 130.00146571563434 19403.472400381448 -999811.72645574948
 -2780.4315919797855 20588.559999838406 -999784.16690668545
 -5970.5147082628519 22181.474013775674 -999736.13276938943
 -0 0 -0
 -0 -0 -0
 0 0 -0
 -0 0 0
 -0 0 -0
 0 0 -0
 0 -0 -0
 -0 -0 -0
 -0 -0 0
 0 0 0
 0 0 0
 0 0 -0
 -0 0 0
 0 0 0
 -0 -0 -0
 31315.743245068938 21248.694710843938 -999283.65202183428
 28061.523167503394 19831.221766919323 -999409.46241305466
 24493.193075644394 17080.552722362696 -999554.06967890321
 21512.675491408198 14565.354617672596 -999662.47065600229
 19138.613309311742 12253.700891760522 -999741.74680016842
 17329.813168183373 10295.627721310066 -999796.81817126216
 15887.581711484747 8781.839070587017 -999835.21844846976
 14684.965416160407 7632.9443424521478 -999863.03559607163
 13702.981240166329 6820.0620368556147 -999882.85066748958
 12890.275562836559 6301.5615781661481 -999897.06026050053
 12157.483894379053 6051.6993602345683 -999907.78200802649
 11407.868141777844 6073.6579888611877 -999916.48212392931
 10558.95155945745 6394.7915252627936 -999923.80468879384
 9559.2044068577143 7047.0039844292969 -999929.47818631248
 8387.0813261012045 8030.1145267589418 -999932.58479135332
 6971.5775477441666 9309.9725758183122 -999932.35847087845
 5065.8475637774636 10994.590427654928 -999926.72540031106
 2525.4652836761252 13068.842653448935 -999911.40976428532
 -637.0143715065725 15315.679475993556 -999882.505184924
 -4465.108068931404 17794.467018665291 -999831.6957135608
 -7706.7266643640023 19070.680461389133 -999788.43537563505
 -0 -0 -0
 0 -0 0
 -0 0 -0
 -0 -0 -0
 0 -0 -0
 0 -0 -0
 0 0 -0
 0 -0 -0
 -0 0 -0
 0 0 -0
 -0 0 0
 -0 0 0
 -0 0 -0
 32476.668152283306 19103.085795835705 -999289.91696044011
 29293.820508122441 17081.018549975262 -999424.89006694907
 25365.140135716534 14208.107084335514 -999577.28033352946
 21962.019777930589 11423.289612114253 -999693.54211263766
 19327.533098298052 9082.6400782542987 -999771.95005338243
 17342.231899464336 7145.3731921299795 -999824.07984339446
 15861.726597009376 5581.7656146667914 -999858.61476610019
 14735.866438185425 4367.6266809028657 -999881.88206282246
 13857.882242270352 3453.1579089723868 -999898.0121993518
 13167.060815013852 2799.6831337346598 -999909.39103693038
 12606.118865395945 2374.7451344777501 -999917.71979133261
 12109.916748318868 2160.299098803082 -999924.33864975616
 11612.255559221996 2156.4380133643758 -999930.25021544471
 11052.81984695095 2377.6164960244814 -999936.08901430725
 10378.729555429145 2843.5587409972604 -999942.09639683727
 9533.5795980340154 3570.5561727863587 -999948.17965165805
 8425.7762083714751 4581.8357595885591 -999954.00548043149
 6904.870148074634 5945.0132409231583 -999958.48893131712
 4823.210743862297 7714.3664262112288 -999958.61173788703
 2050.9294086850859 9919.551945133051 -999948.69677287363
 -1489.9085000527161 12612.910550706325 -999919.34407736175
 -5380.0563741707238 15397.092659683387 -999866.98341881437
 -8327.399086942125 17192.707339826218 -999817.51596917631
 0 -0 -0
 -0 0 -0
 0 0 0
 0 0 -0
 0 -0 0
 -0 0 0
 -0 0 0
 0 -0 0
 -0 -0 -0
 -0 -0 -0
 0 0 0
 33512.032210337107 17946.042245174009 -999277.18039834558
 30272.795612656471 15538.919377707674 -999420.88222648599
 26204.923446601151 12330.362385618386 -999580.54410367412
 22534.235662621551 9385.8632374952813 -999702.0124989188
 19625.567550360789 6945.0229849020789 -999783.27839290514
 17445.024800337269 4995.5710367973643 -999835.34413408872
 15842.869544843075 3445.510489583221 -999868.5573324383
 14674.171169062469 2221.887314033027 -999889.8598932107
 13817.80160409495 1272.8294254932346 -999903.71949707426
 13184.398855413487 554.29946481106947 -999912.9283987307
 12711.031517562493 32.574758436144371 -999919.21104489453
 12344.850316051929 -316.68777070631717 -999923.74928267917
 12034.951471401097 -506.53659621035519 -999927.44905005896
 11731.646200850177 -538.14627412908817 -999931.03706005937
 11386.714168815322 -402.85650879670794 -999935.0881167592
 10950.75392565356 -85.25769049761422 -999940.03506189608
 10365.172398341479 436.19051414458255 -999946.18502146809
 9549.3943328377754 1195.7741992377928 -999953.68852359371
 8393.7040841906892 2250.8327839751428 -999962.23902881728
 6771.1191130122543 3672.3693957226851 -999970.33238440554
 4545.4241226566746 5545.0565355207655 -999974.29540341848
 1603.954363449491 7959.3938246477865 -999967.03714689717
 -2003.9662273803651 10871.605626336976 -999938.89428827842
 -5857.5321462873771 13911.054975072717 -999886.0794443714
 -8793.4470048794064 15929.089835721059 -999834.45599097956
 0 -0 0
 0 0 0
 0 -0 -0
 0 -0 0
 0 -0 -0
 -0 -0 0
 0 -0 -0
 0 -0 0
 0 0 -0
 34899.173409008734 17183.117641685269 -999243.10763871658
 31416.130234361914 14652.944977464993 -999398.97836879187
 27119.640636747481 11271.82385325096 -999568.64250473306
 23217.71825057255 8165.4907708382534 -999697.08528119058
 20068.296605747029 5628.2258869059951 -999782.76967784867
 17672.933603440997 3631.2365182280409 -999837.22752215888
 15910.155382245744 2074.1020825671762 -999871.27424297167
 14636.612473465835 856.80227363246513 -999892.51195574284
 13727.997940179795 -95.575667631623588 -999905.76202852547
 13086.169739752597 -835.56896296438106 -999914.0232970285
 12637.418553956444 -1401.4692163493819 -999919.16250081314
 12326.329720295405 -1820.7330860650497 -999922.37025013892
 12107.370638058725 -2111.7786541085179 -999924.47313142044
 11939.272368662963 -2284.2784454098842 -999926.11519416294
 11782.432952003952 -2339.4979172240305 -999927.84790865122
 11597.025786893213 -2271.1879298131057 -999930.17291123164
 11339.933649993191 -2066.2327545991225 -999933.56608677632
 10959.690534055402 -1703.5832798998622 -999938.4896019384
 10390.253318570109 -1150.4879964778561 -999945.35801379965
 9546.7591948462541 -357.98295657175316 -999954.36457724322
 8325.9555000589808 739.62655904704184 -999965.06509855855
 6608.2018223843588 2225.8957516691021 -999975.68823285762
 4270.0091226059221 4194.7398316047247 -999982.08542945294
 1225.8802560007061 6705.2311712262417 -999976.76827641262
 -2489.8496285437341 9695.9416615320497 -999949.89342672727
 -6510.2538160388167 12762.957974758294 -999897.35648164665
 -9701.7803250193028 14743.311593404433 -999844.24298076774
 0 -0 0
 0 -0 0
 0 0 -0
 0 0 -0
 0 0 -0
 0 -0 0
 -0 0 -0
 37176.346310073233 16295.732740136831 -999175.84456866025
 33156.874798208708 13942.499952289665 -999352.90480825456
 28411.076810202027 10608.796428456742 -999540.02628850448
 24150.284759109247 7466.1537185200696 -999680.45909415756
 20708.731341440165 4869.5554543232383 -999773.69233037194
 18069.77324880462 2829.4547270321937 -999832.72474983742
 16110.70593658094 1252.0118113506467 -999869.43028609944
 14690.003335142726 32.780271228734549 -999892.09554204741
 13679.806151448802 -915.36473375623871 -999906.00808829174
 12976.519805375348 -1656.5714516448459 -999914.42919120134
 12500.219690182579 -2235.9260450597208 -999919.36932055594
 12190.314941764749 -2685.0691288910261 -999922.09027773456
 12000.05339448817 -3025.8499594734626 -999923.41854291642
 11891.039654117967 -3272.3576135090934 -999923.94453357963
 11829.134741675442 -3431.8410806294523 -999924.14414197474
 11781.75587662925 -3505.2186916775759 -999924.44898121513
 11715.656973157314 -3487.4307425955071 -999925.28781329608
 11594.321307080958 -3367.3203884344371 -999927.11377721408
 11374.601885237393 -3126.5390340448225 -999930.41917206487
 11002.876008688532 -2737.3215529701806 -999935.71982915641
 10411.523080443587 -2159.8968761875622 -999943.46591826365
 9516.2338836731033 -1340.7210605397045 -999953.82081359602
 8213.7834320219736 -211.39628375404604 -999966.24396693672
 6382.7325933816637 1307.9716020937035 -999978.77474220924
 3892.4747400767237 3292.848902620869 -999987.00280878774
 630.19544105441764 5778.604953178432 -999983.10514653241
 -3413.5958977428959 8668.8039680331658 -999956.59865856706
 -7904.4713670233887 11519.343639321187 -999902.4072650926
 -11695.444852379418 13152.71659494559 -999845.09931082721
 0 0 0
 0 0 0
 -0 0 0
 0 -0 0
 -0 0 -0
 40768.183493225995 14517.667631654511 -999063.15743360249
 35991.135892450875 12942.758355999928 -999268.29387472768
 30461.159926562166 9995.3992882990678 -999485.97275249253
 25585.607208295303 6999.4884022833612 -999648.13002670556
 21690.470692883522 4437.9165259504816 -999754.88414812449
 18714.769021720993 2391.9865018195978 -999822.00206888781
 16500.538363641197 803.42024671777358 -999863.5340633326
 14886.007720829077 -420.1429327366709 -999889.10897861631
 13731.578062248491 -1365.339630963997 -999904.78527288407
 12924.903438871304 -2101.4105562735285 -999914.26179686538
 12379.079100370625 -2679.4320883607365 -999919.78630503698
 12028.106701609879 -3135.6410654966057 -999922.74321783637
 11821.783180666558 -3495.3234809207047 -999924.01119094691
 11720.896557245196 -3775.6790152771518 -999924.17954156303
 11693.107374328536 -3987.5780246115273 -999923.68231852085
 11709.779254802645 -4136.4956025077827 -999922.88226339454
 11743.619998684102 -4222.9761870563489 -999922.12389838125
 11766.671905720368 -4242.7739228005248 -999921.76909081393
 11748.202022048488 -4186.5953815485609 -999922.223059554
 11652.227090541252 -4039.2953294163303 -999923.95195688365
 11434.621528185686 -3778.5405757821727 -999927.48340148362
 11039.842257209786 -3373.2249289926399 -999933.3693984386
 10397.158329049094 -2782.0445262909902 -999942.0779859873
 9416.0846877816111 -1952.5816058868722 -999953.76131810457
 7981.4418809435829 -822.43830435848417 -999967.80957225652
 5949.7682357209451 674.55512449042692 -999982.07245596417
 3152.3682556801677 2592.0237402958733 -999991.67195897712
 -576.30781745273396 4928.8606709285641 -999987.68702508823
 -5293.7753655959377 7525.4954124735541 -999957.67053469585
 -10639.752932784479 9831.2550673531005 -999895.06553504395
 -15172.656744232303 10588.44012041213 -999828.82306079706
 0 0 0
 -0 -0 -0
 0 -0 -0
 0 0 -0
 38853.243310501828 11501.262479447299 -999178.73598552612
 33434.385530184911 9268.2615492744371 -999397.93935752811
 27799.99134893822 6590.4563919336515 -999591.77986093133
 23223.353793913066 4162.9737031585937 -999721.63400044001
 19742.814073633355 2165.7978484601267 -999802.74585146713
 17164.581331268375 590.98213817956298 -999852.50306624442
 15284.777540240028 -628.66265319961985 -999882.98333295656
 13934.45922718248 -1569.5703028252233 -999901.67881402746
 12982.632937956008 -2298.9649165956475 -999913.07922354457
 12330.226784864022 -2869.9022553508557 -999919.86137313966
 11903.0849853783 -3321.824649779709 -999923.63810884405
 11645.661348273467 -3683.0621373521253 -999925.40403024759
 11515.738311173602 -3973.4987812980798 -999925.79678623355
 11480.160034860826 -4206.6371304129379 -999925.25227120193
 11511.475836378015 -4390.9400434728386 -999924.09990438912
 11585.377190490119 -4530.5964818512275 -999922.62337186502
 11678.707249335164 -4625.8866868888817 -999921.10137217562
 11767.742387694048 -4673.2563274513432 -999919.83724416362
 11826.444895829629 -4665.1009498614449 -999919.18275141309
 11824.453527338057 -4589.2436733742679 -999919.55733513203
 11724.614743848639 -4428.1263787218004 -999921.45946863363
 11479.836675875868 -4157.8265639306592 -999925.46013598389
 11028.92034650676 -3747.0469002369605 -999932.15897655662
 10290.917802411772 -3156.3060073241036 -999942.06569339416
 9157.7269017599156 -2337.9674169041627 -999955.33397564827
 7485.3273509823157 -1238.4386620118271 -999971.21765785269
 5086.5040208290666 194.72328068976125 -999987.0446959252
 1736.4941869340912 1993.8378099094889 -999996.5045932543
 -2768.8056576948397 4125.0361058687804 -999987.65882002516
 -8355.2277003157305 6381.6359750255224 -999944.73091884353
 -13640.909796737396 8153.0369542333246 -999873.7188107007
 -0 0 -0
 -0 -0 -0
 0 0 -0
 42997.346221705084 9907.8324929075025 -999026.05725435563
 37575.95326075254 8622.7088259034099 -999256.57197190821
 31094.965002292596 6260.6883372954635 -999496.82687492773
 25566.001521867227 3981.0431392787596 -999665.20938847668
 21340.673451477363 2058.5358529534492 -999770.14262618369
 18227.80743388968 518.6106382988155 -999833.72521592746
 15969.392971290346 -685.08970697463246 -999872.24640962109
 14347.78462132763 -1616.6365923257536 -999895.75834813341
 13197.964132073921 -2337.4366001625003 -999910.1710318327
 12398.807458899637 -2899.0329557842661 -999918.92930453038
 11862.081992637361 -3341.7403332452459 -999924.0590076556
 11523.295148282768 -3695.7434696353416 -999926.77489360806
 11334.727845633561 -3982.9922592882594 -999927.8272542113
 11260.242496879904 -4219.0571940598138 -999927.70063405321
 11271.424156141369 -4414.5705250851788 -999926.730598083
 11344.71042230881 -4576.1964211099794 -999925.17518649832
 11459.234204003935 -4707.1973407078358 -999923.26117790316
 11595.130603877855 -4807.7085595696954 -999921.21633890993
 11732.054745850028 -4874.7872303409113 -999919.29441375367
 11847.676326103838 -4902.273278757003 -999917.79676250007
 11915.922454702379 -4880.4640247804 -999917.09249465098
 11904.73416084885 -4795.6221883670905 -999917.63626430044
 11773.031403472411 -4629.337755164267 -999919.97928010288
 11466.476810542095 -4357.7829754569166 -999924.76198816672
 10911.501315953226 -3950.9209158450039 -999932.66241429909
 10007.065220000659 -3371.8812007262459 -999944.24297700252
 8614.0147163496295 -2576.997032114507 -999959.5781014167
 6543.6418728424887 -1517.6614323490787 -999977.43847289716
 3553.2074718080371 -146.83807095868642 -999993.67655762855
 -623.43749989571086 1562.6442748698296 -999998.58473327546
 -6115.2455657009741 3563.8804099719123 -999974.95095031976
 -12351.954485096001 5531.1287562650105 -999908.41372351686
 -17186.376053324264 6203.1405574274158 -999833.06082834571
 -0 -0 0
 0 0 -0
 41364.025224944911 7502.4548440336166 -999115.97454374796
 35374.439157556815 5921.9345951986534 -999356.58287967404
 28925.537971651207 3875.3281022315673 -999574.05682878266
 23725.432473051354 2031.3218576463369 -999716.44859203813
 19856.58553414651 529.05575051751794 -999802.69859154616
 17055.940290101662 -652.87439414647304 -999854.32371713349
 15051.184819292908 -1570.0723613888185 -999885.49179809366
 13627.940246494945 -2279.2881992018702 -999904.53748842573
 12629.764013834341 -2829.6458015543062 -999916.2375747246
 11945.05818287064 -3260.7971042549198 -999923.33845513011
 11494.350912163667 -3603.4465931927525 -999927.44490275811
 11220.512789127481 -3880.6955938046722 -999929.51766334858
 11081.716406109084 -4109.5410734249408 -999930.15117740131
 11046.453722742217 -4302.1905584972619 -999929.7310394115
 11090.003934061962 -4467.0648433336519 -999928.52601794875
 11191.894698936367 -4609.469398336294 -999926.74445926968
 11334.025340180224 -4731.9958186819958 -999924.57119782793
 11499.184744434118 -4834.7129479772657 -999922.19412358489
 11669.739730390593 -4915.2090088460573 -999919.82573355548
 11826.280423324513 -4968.5065710098197 -999917.72313215979
 11946.01529262716 -4986.8684962539801 -999916.20842010016
 12000.669927946858 -4959.4861659886774 -999915.69015505002
 11953.583222663818 -4872.0430211571502 -999916.68405169563
 11755.579251799512 -4706.1182504262151 -999919.82618981402
 11339.082986088242 -4438.400654167448 -999925.86014997505
 10609.889181898356 -4039.7013421914371 -999935.55345562845
 9436.2604591294039 -3473.875491703242 -999949.4433108184
 7636.3228593312169 -2697.1303136971501 -999967.20549288963
 4969.3040861327572 -1659.5389439591106 -999986.27587952069
 1150.6050080834959 -315.41684204564802 -999999.28830991231
 -4045.1652845251474 1333.2710751113925 -999990.92947189324
 -10398.849270811083 3089.8627721892885 -999941.15660967398
 -16035.038360325052 4286.1926554656084 -999862.24356023315
 0 0 0
 -0 -0 0
 39338.970263651907 5605.4266583438139 -999210.20041359356
 33271.739853172068 3861.2738438134106 -999438.88351987081
 27101.39712147474 2072.8414722700027 -999630.5405510054
 22256.207897582721 589.57271074176015 -999752.12608628045
 18702.854161615858 -575.98935690588451 -999824.92041480436
 16156.913362710315 -1477.2264454336153 -999868.37731404381
 14350.410608782897 -2171.5064616434183 -999894.66959027539
 13078.511955952958 -2707.6804704294459 -999910.80651800544
 12194.37019750187 -3124.8715457377357 -999920.76311741257
 11594.788371007737 -3453.597487617044 -999926.81409542414
 11207.264813588985 -3717.2508616911459 -999930.28720077744
 10980.279223303396 -3933.5048965623573 -999931.97819022031
 10876.447077907045 -4115.5108731766431 -999932.3804484054
 10867.791446965206 -4272.8467994719549 -999931.81462002371
 10932.471930666301 -4412.2010824707395 -999930.50435472408
 11052.483696609504 -4537.8276032689309 -999928.62281503819
 11211.969948214615 -4651.8096812852236 -999926.32348417025
 11395.885920262108 -4754.1911518324177 -999923.76281923812
 11588.796488031972 -4843.0044036709351 -999921.11944108142
 11773.618994433366 -4914.2264324594826 -999918.61282523628
 11930.111602110059 -4961.6601618086825 -999916.52369865333
 12032.883226374508 -4976.7369508269667 -999915.2173112391
 12048.626539468036 -4948.2009490379769 -999915.16935482086
 11932.18661390345 -4861.6257525928659 -999916.9903135224
 11620.954872437656 -4698.6748879510524 -999921.43484483333
 11027.023307350204 -4436.0130903881709 -999929.36077747063
 10026.700780898811 -4043.7819471786679 -999941.5548415886
 8447.9849269606675 -3483.7215034120986 -999958.24674591294
 6059.9765532062702 -2707.6681375775365 -999977.97236610739
 2578.9164421486848 -1659.4736534901492 -999995.29765753273
 -2259.8902459654942 -290.74578041773947 -999997.40417811449
 -8388.3959960170068 1375.2274031333629 -999963.87112845434
 -14194.050274155754 2988.8018862023564 -999894.79246573721
 -0 0 -0
 44931.702642612494 5150.4187016633496 -998976.78415708628
 38890.903950540713 3920.2784997809727 -999235.77248134662
 31765.293328415046 2152.0485612232878 -999493.03890860092
 25705.592413588303 657.64885987655725 -999669.34034041665
 21133.025482013534 -499.5591919705339 -999776.54787186859
 17828.137510084318 -1382.4293383390718 -999840.11041868373
 15479.563770972996 -2055.8865272321432 -999878.0707846568
 13823.858604338675 -2571.9099902458579 -999901.13821931893
 12665.367427347213 -2970.2997564287316 -999915.37931331317
 11865.625249273262 -3281.3508652220521 -999924.2169654374
 11328.230773666059 -3528.1527752154984 -999929.60918533336
 10986.040700276511 -3728.3116489399463 -999932.70103641471
 10791.738661471132 -3895.2120367242737 -999934.18068383448
 10711.26234424312 -4038.9458850394785 -999934.47574085102
 10719.314375043788 -4166.974231936646 -999933.8641255626
 10796.298066170153 -4284.5832376180142 -999932.53887177131
 10926.182034480367 -4395.1692290586507 -999930.64811195654
 11094.941687368995 -4500.4052959436358 -999928.32174167677
 11289.313893263959 -4600.3169118624846 -999925.69147718663
 11495.664328742439 -4693.3041794227811 -999922.90832719719
 11698.785288229245 -4776.1165263421462 -999920.16037967091
 11880.447942815552 -4843.7892897941201 -999917.69294377125
 12017.49438861929 -4889.517455607187 -999915.83268176659
 12079.203300905168 -4904.4385529478186 -999915.01605391258
 12023.562446992881 -4877.2574972533257 -999915.8196095255
 11791.983825214271 -4793.6341242080771 -999918.98181270121
 11301.914383622623 -4635.2150830225037 -999925.3879727223
 10436.92815786692 -4378.1930566038973 -999935.94892682345
 9034.641332260584 -3991.3110797020513 -999951.22115624335
 6875.45967183836 -3433.4772993112856 -999970.46920793445
 3683.2440285959397 -2652.0149183668482 -999989.70021210669
 -827.0027822540402 -1586.150555348717 -999998.40009512694
 -6749.3792818545562 -199.2943166750045 -999977.20282068686
 -13377.250100621159 1330.820248242489 -999909.63496568624
 -18448.97323914037 1948.5201503996475 -999827.90451939532
 44186.246849018338 2576.5620876008466 -999019.98824708525
 37692.854645913474 1702.7107807530335 -999287.92121422093
 30508.26706611121 514.17252314068298 -999534.3822336673
 24652.309015404113 -532.23002767595881 -999695.94397066871
 20304.572557585383 -1355.2289721937345 -999792.9224032776
 17188.093395242948 -1984.7921349397625 -999850.30381833517
 14985.710735557575 -2464.9428251316726 -999884.66961476055
 13440.293598083701 -2833.1528727877499 -999905.66142651509
 12363.871419705671 -3118.3264796801163 -999918.70205706405
 11624.493573783036 -3342.3659426165991 -999926.84719386289
 11130.842240857308 -3521.9394157247712 -999931.8478245209
 10819.683474545645 -3669.8295746346739 -999934.73127019848
 10646.740395303203 -3795.8819961353411 -999936.11705889821
 10580.371242778558 -3907.646311502343 -999936.39099928224
 10597.278162757542 -4010.8066303581577 -999935.80350226257
 10679.592588122663 -4109.4509227712615 -999934.52721428964
 10812.853853807233 -4206.2350172054448 -999932.69262411655
 10984.528654293157 -4302.4658690603055 -999930.41203760216
 11182.820692011404 -4398.1428549562243 -999927.79782382154
 11395.571677861086 -4491.9661449273372 -999924.9787790518
 11609.090410211087 -4581.3316715487053 -999922.11717711424
 11806.738944807461 -4662.3006549529755 -999919.42868817772
 11967.086592803415 -4729.5371096534091 -999917.20673124201
 12061.376039063516 -4776.1734746744669 -999915.85214706173
 12049.968898589641 -4793.5643537759997 -999915.90645930299
 11877.319763667141 -4770.8558659477567 -999918.08074938715
 11464.952299824115 -4694.3032678570107 -999923.25624799437
 10701.964271488681 -4546.2745175664541 -999932.39738931472
 9433.183311176912 -4304.0018376334456 -999946.24386553862
 7447.1857743333085 -3938.535834190674 -999964.51305010088
 4472.718763011113 -3415.7126319298472 -999984.16372164746
 209.8041822513774 -2705.3990122051487 -999996.31839241798
 -5530.3638792594802 -1819.1599220555627 -999983.05272266536
 -12381.042235448549 -922.34593385785274 -999922.92656541429
 -18209.344392844549 -456.26764510184267 -999834.09203558322
 43406.658017725968 277.67055966944787 -999057.44826751214
 36763.706478775712 -208.68725174068049 -999323.96465589339
 29629.105633457468 -886.99187749117925 -999560.56812219787
 23927.395494888522 -1522.9406674894126 -999712.53888132994
 19736.632599712371 -2042.6442214244821 -999803.12708963302
 16749.963921673418 -2447.8543257589968 -999856.71309334273
 14647.74006960575 -2760.1581762136266 -999888.90644795925
 13177.452862414826 -3001.6406277202791 -999908.66827405849
 12156.470746300636 -3190.4235687361074 -999921.01758911251
 11457.296016292055 -3340.6226195800668 -999928.78276830714
 10992.037325317475 -3463.193453287282 -999933.58849802823
 10700.077663658543 -3566.723039403204 -999936.39138934831
 10539.187511285352 -3657.9883994798915 -999937.77038747317
 10479.395609478994 -3742.3226933613673 -999938.08672763268
 10498.836652844973 -3823.833049871419 -999937.57441639504
 10580.937225934573 -3905.5276478650726 -999936.39328769932
 10712.460234953114 -3989.3746848252827 -999934.66190813633
 10882.068074486981 -4076.3308912531202 -999932.47978095361
 11079.153358906391 -4166.3474623551747 -999929.94450094993
 11292.752720409966 -4258.3773151421028 -999927.16732701985
 11510.38092872219 -4350.3779710920071 -999924.2898051755
 11716.63332609098 -4439.3171762162383 -999921.50340239739
 11891.370054356288 -4521.1587908778947 -999919.07394619612
 12007.250209610835 -4590.8160526952679 -999917.37176147418
 12026.286429307034 -4642.0319795624137 -999916.9065346485
 11894.988204776473 -4667.1579342802488 -999918.36011367687
 11537.541080749856 -4656.7916936094716 -999922.59672283253
 10846.475232412258 -4599.2944554657679 -999930.59782444115
 9670.6520603860063 -4480.3434677447394 -999943.20089249976
 7801.9913054607596 -4283.1327013604669 -999960.39106853236
 4967.3582626368334 -3990.9806177576261 -999979.69850672421
 846.99828411703811 -3596.6510101465824 -999993.17332440743
 -4813.1552805804959 -3125.8899760016079 -999983.53103843809
 -11774.900491148639 -2675.1350207548576 -999927.09502795467
 -17886.64699275219 -2405.3360886252503 -999837.12784515915
 42866.792187597399 -1474.0498314956217 -999079.70918472728
 36194.05045780346 -1717.2076706192734 -999343.30533069267
 29108.149337535138 -2043.5227779732243 -999574.17916670861
 23498.541806675727 -2354.890411350304 -999721.09761878604
 19400.06408728419 -2615.1676183665836 -999808.38084691844
 16489.810216860293 -2822.2708632029803 -999860.05068018741
 14446.452943673399 -2985.0892308910502 -999891.18869986536
 13020.083110927904 -3113.7413258581569 -999910.38701012614
 12031.10741352387 -3216.9347654442504 -999922.44888547191
 11354.522223792388 -3301.7476425117488 -999930.08419967769
 10904.33303339448 -3373.9547273074031 -999934.85385328729
 10621.380518683476 -3438.3355365751127 -999937.6801204239
 10464.614754236769 -3498.8751882485858 -999939.12300222681
 10405.083550908348 -3558.8628014174069 -999939.53253777267
 10421.861364247388 -3620.9314885240024 -999939.13497815456
 10499.284481932909 -3687.054184895761 -999938.08341157052
 10625.025448700642 -3758.5276043607259 -999936.48913541611
 10788.665870223424 -3835.9471200944495 -999934.44295035279
 10980.527668314777 -3919.1959057001409 -999932.03164794052
 11190.575663809297 -4007.443241127738 -999929.35321200662
 11407.242846938116 -4099.1655178102346 -999926.53312765376
 11616.024083142835 -4192.1756129415753 -999923.74391656986
 11797.66899672382 -4283.6628417285174 -999921.22951705661
 11925.739236843245 -4370.2206579435815 -999919.33570416342
 11963.217676906452 -4447.85568125597 -999918.54568392411
 11857.725800878139 -4511.9532990741309 -999919.51506921707
 11534.789458896988 -4557.1986306455265 -999923.08732861024
 10888.523360946197 -4577.4598912564225 -999930.24102682399
 9769.3733610616582 -4565.7283781371607 -999941.85504383687
 7969.8261742204759 -4514.3900382483935 -999958.05019677442
 5213.4948231715334 -4416.5570973023287 -999976.6564751073
 1167.7059197710039 -4269.8683891836472 -999990.2022954144
 -4450.9569045159305 -4084.1409059206944 -999981.75422139326
 -11439.379666864652 -3889.8962238253089 -999927.00198574748
 -17620.210106634982 -3736.0605137049938 -999837.77186483413
 42615.911740973948 -2961.081547414813 -999087.14137584367
 35956.255279687 -3026.5769949243372 -999348.78172635799