# OOMMF OVF 2.0
#
# Segment count: 1
#
# Begin: Segment
# Begin: Header
#
# Title: Oxs_TimeDriver::Magnetization
# Desc: Oxs vector field output
# Desc:  MIF source file: /mnt/gpfs/work/plgrid/groups/plggspinsym/MF/switching-obrazki/p-ap/Anisotropy.mif
# Desc:  Iteration: 12700, State id: 89050
# Desc:  Stage: 0, Stage iteration: 12700
# Desc:  Stage simulation time: 1.86833e-09 s
# Desc:  Total simulation time: 1.86833e-09 s
# meshunit: m
# meshtype: rectangular
# xbase: 1.0000000000000001e-09
# ybase: 1.0000000000000001e-09
# zbase: 3.4999999999999998e-10
# xnodes: 35
# ynodes: 35
# znodes: 5
# xstepsize: 2.0000000000000001e-09
# ystepsize: 2.0000000000000001e-09
# zstepsize: 6.9999999999999996e-10
# xmin: 0
# ymin: 0
# zmin: 0
# xmax: 7.0000000000000005e-08
# ymax: 7.0000000000000005e-08
# zmax: 3.4999999999999999e-09
# valuedim: 3
# valuelabels: Magnetization_x Magnetization_y Magnetization_z
# valueunits: A/m A/m A/m
#
# End: Header
#
# Begin: Data Text
 -0 0 -0
 0 0 -0
 -0 -0 0
 -0 0 0
 0 0 0
 -0 0 -0
 0 0 0
 0 -0 0
 -0 0 0
 0 0 0
 0 0 0
 -0 -0 0
 0 0 0
 -3933.3743764804481 -15768.930583710036 -999867.92597535625
 -1499.9617501743655 -15750.571344314329 -999874.82697439461
 1072.7379942498608 -16009.209648438879 -999871.26893397036
 3112.6920921737405 -16602.876943692092 -999857.31763343699
 4722.6487066326754 -17474.603640953777 -999836.15398563468
 6161.3968983932455 -18560.88428728325 -999808.74709253013
 7730.1061609175113 -19810.630466979306 -999773.86662146833
 9736.2318215233499 -21147.146566996071 -999728.965261081
 12071.477600214363 -22297.663604152163 -999678.4951304812
 0 0 0
 -0 0 -0
 -0 0 -0
 -0 0 0
 0 -0 0
 -0 0 0
 -0 -0 0
 0 0 0
 0 -0 0
 0 -0 -0
 0 -0 0
 -0 -0 0
 0 0 -0
 -0 -0 -0
 -0 -0 -0
 -0 -0 -0
 -0 0 -0
 0 0 -0
 0 0 -0
 -0 -0 0
 0 0 0
 0 0 -0
 0 0 0
 -8557.4375993626854 -7185.0024601278319 -999937.57105200365
 -6304.4371812487025 -7200.266171964221 -999954.20407080662
 -4402.2492025802076 -7473.8472335923188 -999962.38019711885
 -3098.8477676450025 -8934.333993300339 -999955.28640965186
 -1009.2326429416433 -8824.1164194784687 -999960.55743158597
 1135.5260676177768 -8904.8071682677401 -999959.70668314712
 2917.1922015055725 -9380.9316193016894 -999951.7428914326
 4374.4878275328338 -10173.482505437101 -999938.68017491861
 5695.5091640817791 -11204.59795804645 -999921.00595995109
 7120.1874220633481 -12435.269313974635 -999897.32823333621
 8903.3224372636032 -13859.806785420775 -999864.30909671378
 11115.080302054699 -15421.773093702672 -999819.29562522692
 13029.036449555497 -16282.692167910503 -999782.53542706044
 14781.58547904135 -18903.260574639593 -999712.04427593702
 16885.027827167283 -21004.473042302809 -999636.7880122714
 -0 0 -0
 0 -0 0
 -0 0 -0
 0 -0 -0
 -0 0 0
 -0 0 0
 -0 0 -0
 -0 0 0
 -0 0 -0
 -0 0 0
 0 -0 -0
 -0 0 -0
 -0 0 0
 -0 0 0
 -0 -0 0
 0 0 -0
 0 -0 -0
 -0 -0 0
 -12440.321176224716 877.34316029002446 -999922.23131502129
 -10377.369563275914 549.58651951923446 -999946.00261994393
 -8194.1365631445515 -815.28351070668543 -999966.09514462121
 -5776.8638131302087 -666.67398190260474 -999983.09155219549
 -3721.0459959191235 -586.84202071889706 -999992.90469139768
 -2102.5139760944662 -766.54191765894723 -999997.49592109909
 -424.29297373978829 -705.31362272456943 -999999.66125402553
 1207.7354062907693 -842.49333046190873 -999998.91578950034
 2631.0120520196378 -1302.06088683497 -999995.69119723176
 3852.3143844390079 -2044.1185114433179 -999990.49058148277
 4983.5578605147775 -3014.4837730708482 -999983.03837546811
 6183.2979072477556 -4192.4228926177666 -999972.0948192901
 7612.7593551979626 -5605.6109106390559 -999955.31051208382
 9329.5481806053322 -7316.623637432529 -999929.71080436138
 11135.805542893802 -9300.8432691692506 -999894.73853470851
 13095.156754260706 -11892.820097536725 -999843.52660789306
 15589.417797214206 -14459.201010414774 -999773.92522454017
 18272.169634357087 -15996.449179171334 -999705.07722553425
 20968.916565448497 -18373.488985993336 -999611.28417027835
 -0 0 -0
 -0 -0 -0
 0 0 -0
 -0 0 0
 -0 0 -0
 0 0 -0
 0 -0 -0
 -0 -0 -0
 -0 -0 0
 0 0 0
 0 0 0
 0 0 -0
 -0 0 0
 0 0 0
 -0 -0 -0
 -13115.482111932013 7197.1078610561281 -999888.08662140183
 -11879.21080307095 6254.0769591447533 -999909.88137535925
 -9572.7117278257483 6460.9726678890729 -999933.30728722166
 -7226.3047821407472 6520.98995394752 -999952.62748253043
 -5026.5729658454002 6775.815532016908 -999964.41031073441
 -3137.4573155865005 6892.2866851941044 -999971.32596182066
 -1572.9384510838518 6828.3477054313971 -999975.449464757
 -166.74116208152626 6697.3075764701525 -999977.55888250365
 1111.2955076600731 6395.4987952187766 -999978.93108677794
 2237.8860829406512 5868.1261608658297 -999980.27828614705
 3234.0234448860365 5126.0670866795535 -999981.63209560048
 4171.4778351216191 4194.1984620998755 -999982.50358290353
 5151.0000627643758 3078.0015625249584 -999981.99639030232
 6273.1556619717312 1748.4592266424424 -999978.79497936042
 7592.5405519141141 147.36568474580878 -999971.16538994387
 9097.6467594905826 -1772.1115994850127 -999957.04529940628
 10872.493962661316 -4071.7219801447168 -999932.60270637658
 13122.200251386845 -6618.9676616376919 -999891.99273104337
 15891.137304042984 -9261.5862417806093 -999830.83307901141
 19217.823075365945 -12079.207491752904 -999742.35081975767
 22290.396548236418 -13322.715934163634 -999662.76486716256
 -0 -0 -0
 0 -0 0
 -0 0 -0
 -0 -0 -0
 0 -0 -0
 0 -0 -0
 0 0 -0
 0 -0 -0
 -0 0 -0
 0 0 -0
 -0 0 0
 -0 0 0
 -0 0 -0
 -11769.845575002924 13106.317442132073 -999844.83555112034
 -11821.534817624299 12175.509141527935 -999855.99377695378
 -10486.28296811843 12390.445109042574 -999868.24869055219
 -8467.934155940573 12910.957415794723 -999880.7935297779
 -6388.9471834440037 13257.353752277179 -999891.7060989025
 -4479.7733763733031 13455.530067633677 -999899.43511389929
 -2827.6546484366363 13466.523981817951 -999905.32406875247
 -1432.5941873275633 13303.002686850248 -999910.48489022639
 -231.20613627506089 13006.84244489911 -999915.38071645633
 817.13223966831936 12564.373873332364 -999920.73126027023
 1734.4224720445607 11961.922364184611 -999926.94942782784
 2553.7433173937052 11204.039417434058 -999933.97176803718
 3328.7643983562148 10300.035047382573 -999941.41258655884
 4127.4141816113752 9247.8298812341291 -999948.7197324977
 5017.9334525651902 8025.0216522389728 -999955.20868254243
 6052.7366009748257 6592.0002288670848 -999959.95415447594
 7272.5982960570627 4908.716043855703 -999961.50616952486
 8759.5487877694832 2941.2700874747939 -999957.30870638031
 10648.757079877372 690.80177712607781 -999943.06176179787
 13068.260547770235 -1851.6985676081238 -999912.89209544181
 16148.717133678794 -4703.4589941944341 -999858.53819849272
 19728.607116802483 -7459.3425155104487 -999777.54539220757
 22659.583515567989 -9110.5983250617119 -999701.72565273696
 0 -0 -0
 -0 0 -0
 0 0 0
 0 0 -0
 0 -0 0
 -0 0 0
 -0 0 0
 0 -0 0
 -0 -0 -0
 -0 -0 -0
 0 0 0
 -8955.4820868710194 18306.928646264529 -999792.30628372636
 -10224.285457662096 17362.955255928107 -999796.97527631128
 -10169.889083199885 17474.446773761312 -999795.58764078689
 -9081.069542754658 18026.673293080334 -999796.26585917198
 -7482.5805923574326 18576.547346694268 -999799.44132628676
 -5778.062627418044 18915.335226143445 -999804.39291171159
 -4174.7383409643253 19032.84354229091 -999810.1431904356
 -2758.5908953386243 18948.240400370196 -999816.66037429171
 -1544.3587377043677 18693.237928854833 -999824.07343083329
 -507.62048143969952 18299.525604853898 -999832.42080064805
 382.15837124737328 17779.329710411028 -999841.86219123052
 1154.6851727099831 17137.827142991377 -999852.46990892058
 1844.7975492545588 16381.346492227534 -999864.11487216782
 2495.8924841802518 15514.653265038925 -999876.52540439868
 3157.7864226593774 14534.599678515655 -999889.38078024122
 3881.1812284301031 13426.026113779768 -999902.33435824327
 4713.2613564842441 12163.193206448866 -999914.91732967354
 5703.381100113701 10716.033567497834 -999926.3163196611
 6922.4621081011082 9053.1660683742721 -999935.05774250184
 8470.9365095548419 7142.6851942261628 -999938.61075711413
 10468.739981205787 4937.5634471410494 -999933.01073142455
 13047.980082830929 2380.6601661715322 -999912.0374677619
 16257.041134691703 -500.4563261374978 -999867.72032954975
 19821.749125723465 -3445.7114332917058 -999797.59218269575
 22664.777916131377 -5321.2284712034925 -999728.95945329615
 0 -0 0
 0 0 0
 0 -0 -0
 0 -0 0
 0 -0 -0
 -0 -0 0
 0 -0 -0
 0 -0 0
 0 0 -0
 -4912.4368710466315 22441.918704918877 -999736.07929734618
 -7322.4347750876332 21535.717190817362 -999741.26394484774
 -8603.7852724935183 21497.305939715239 -999731.884415176
 -8681.8385045798041 21981.69933333361 -999720.67627642851
 -7917.4247195095104 22610.265434685934 -999713.00395802793
 -6707.1616684890032 23133.403236585196 -999709.88773596042
 -5351.2119825633063 23442.373921282815 -999710.8680189749
 -4029.1041206160471 23528.100687387625 -999715.05680270179
 -2829.6501779139617 23415.879218790364 -999721.80614423007
 -1782.6616655371097 23139.198712977788 -999730.66352908663
 -883.93216366718764 22728.077645489906 -999741.29311060812
 -114.1958156335062 22202.688692584787 -999753.4834018515
 552.58596117357774 21576.264057781431 -999767.05260678823
 1147.5491958517175 20858.289766880051 -999781.78363023011
 1706.4471351096922 20054.27175652561 -999797.43659527879
 2268.1712054597469 19163.539318488922 -999813.78974295571
 2872.6786943710163 18177.556862624791 -999830.64773171709
 3560.468517309288 17080.274913035377 -999847.78205126419
 4376.6523300548242 15849.853618725016 -999864.80438839656
 5379.4077281889495 14458.660481914407 -999880.99747398077
 6645.4812807943963 12870.361217263315 -999895.09018730745
 8270.3337323023316 11032.919072390985 -999904.93361954088
 10363.927644531279 8877.6986651636544 -999906.88339974405
 13020.724944211755 6342.1696082999133 -999895.11330268357
 16249.951653825517 3429.5927645159659 -999862.07897125417
 19806.483884766716 443.13088771706549 -999803.73415542883
 22686.188073027304 -1433.9146284768726 -999741.60699630447
 0 -0 0
 0 -0 0
 0 0 -0
 0 0 -0
 0 0 -0
 0 -0 0
 -0 0 -0
 63.579277837075338 25238.084199802233 -999681.46680009982
 -3312.185892893855 24427.915781453426 -999696.10700211546
 -5863.56826505767 24242.822574120324 -999688.9036699573
 -7176.797455053892 24628.162238540313 -999670.91945451812
 -7428.8479155567447 25297.890415253969 -999652.35405073967
 -6952.9731483709011 25990.328655980989 -999638.01397343422
 -6065.4749856033723 26544.922246957089 -999629.21981907974
 -5006.4144009985685 26893.707180891313 -999625.76213746809
 -3931.6049952495277 27030.486995311363 -999626.87801747187
 -2928.3224245159249 26976.984393417722 -999631.76582220267
 -2035.2340717335774 26762.914252519338 -999639.73722686002
 -1259.9376005380013 26416.17806771164 -999650.23787999852
 -592.21148167713704 25958.899466663046 -999662.83557209454
 -11.907903025886732 25407.700187254995 -999677.17220580589
 506.98655109082745 24774.853266451137 -999692.92765841994
 994.05792504464398 24068.456401512827 -999709.81852500082
 1480.8348295575238 23291.708380022857 -999727.61462757818
 1999.801596304532 22442.133931184562 -999746.14348753076
 2584.8157360325868 21511.338728437091 -999765.26296612306
 3273.7741598277394 20484.916921956137 -999784.80213566509
 4112.9930267963355 19341.300429416591 -999804.47957891296
 5160.9218688702849 18048.874533921651 -999823.78598107095
 6490.0312325962786 16561.585217061966 -999841.78417872614
 8186.2835050217354 14816.479384679973 -999856.71808565618
 10341.990324154114 12739.24673432672 -999865.36835154821
 13040.160851050989 10266.960544237765 -999862.26237725466
 16313.006868547986 7425.7864500989908 -999839.35884846223
 19981.070657758028 4546.1243107400633 -999790.02273933566
 23114.0037631954 2825.6753430466047 -999728.84243123175
 0 0 0
 0 0 0
 -0 0 0
 0 -0 0
 -0 0 -0
 5806.0289901022006 26204.079891998554 -999639.75322331965
 1578.5199787420274 25790.924070701807 -999666.11251470156
 -2086.0210023188574 25565.818010660041 -999670.96460076491
 -4574.6495026323928 25862.104800313031 -999655.05256424623
 -5898.4758180612089 26551.880690803791 -999630.03437011887
 -6296.5878715610552 27399.828911792887 -999604.72305645898
 -6056.1854375395524 28215.438745893749 -999583.51908898668
 -5433.9591019555273 28884.444006854294 -999567.98717390583
 -4627.483026211411 29357.976214613136 -999558.25024528918
 -3772.1348959876173 29630.504657595826 -999553.80254994903
 -2950.3448678045702 29718.638371270084 -999553.94951874344
 -2204.358731866334 29646.875914483651 -999558.00409535621
 -1548.4095086160653 29439.841649869748 -999565.35461750778
 -978.60203929558077 29118.978100753524 -999575.47361488244
 -479.94309767025197 28701.945339757651 -999587.89908058441
 -30.998359400407836 28202.931580464781 -999602.21772931726
 393.06580250730894 27632.786674237796 -999618.0643625299
 818.58185311765828 26998.727623844763 -999635.13275116705
 1272.5354950498786 26303.820094475737 -999653.18471050321
 1782.9408049826454 25546.405412214433 -999672.04736983671
 2380.5184101582854 24719.294993228883 -999691.59723743622
 3101.2271838000825 23808.259977416208 -999711.73302447668
 3988.7250866008048 22789.539019400403 -999732.32766749442
 5096.2647742958861 21626.600193133494 -999753.12865198683
 6488.033164564441 20267.504772402357 -999773.54119618319
 8240.1443528313248 18645.365648370571 -999792.20359076757
 10442.959372750007 16686.272959741764 -999806.23767520662
 13202.561813981163 14336.910018781316 -999810.05464671226
 16616.547210052762 11642.059383081309 -999794.15522003174
 20615.113976240067 8973.3730513158207 -999747.21587600745
 24276.856890952655 7619.6144085502237 -999676.23543613439
 0 0 0
 -0 -0 -0
 0 -0 -0
 0 0 -0
 6655.3684594439974 25286.26463329879 -999658.09699695033
 2596.4502521667559 25347.627409097167 -999675.32540861354
 -926.33501662208812 25687.973688536305 -999669.58036704012
 -3301.8676812632893 26406.948620747757 -999645.82264637947
 -4630.4626118165461 27378.724270681723 -999614.40779598162
 -5148.4898851323924 28430.23795121162 -999582.52016626426
 -5101.3517395009812 29422.588068476427 -999554.0443226581
 -4701.6308590046574 30270.378049298823 -999530.68931374897
 -4114.961449212562 30934.823521534294 -999512.93327598483
 -3459.1836438792625 31409.101951590328 -999500.62649460719
 -2810.2104615573048 31704.21744953794 -999493.34430654126
 -2210.4026979369423 31838.804096732696 -999490.57257865265
 -1677.1166857673747 31833.114152315593 -999491.79092326132
 -1210.2593895688592 31706.194399718133 -999496.49949807103
 -798.37212786116527 31475.026710581027 -999504.21974872809
 -423.24863231476866 31154.501584592592 -999514.49108635285
 -63.259734242341892 30757.467555662322 -999526.87517033215
 304.48581959984961 30294.538276744715 -999540.96876465494
 703.09410797089708 29773.611786760313 -999556.42046852293
 1155.909219715774 29199.120409597901 -999572.9464332161
 1687.4450399958484 28570.925824541355 -999590.34345413989
 2324.8471729426115 27882.689435911878 -999608.49872109573
 3099.4191954656831 27119.615749378285 -999627.39060224686
 4048.0404330053816 26255.699332006272 -999647.06352854369
 5214.8459239835056 25251.001526250984 -999667.54088742437
 6654.3343495504459 24049.953765740691 -999688.61129765306
 8438.1934110353377 22582.518566664017 -999709.37114100519
 10667.191925414863 20772.884989310973 -999727.31195343821
 13478.955416974188 18568.942941873906 -999736.72140163404
 16983.042800764106 16039.266819769478 -999727.12185731553
 20685.306833160426 13713.367873361254 -999691.98337427317
 -0 0 -0
 -0 -0 -0
 0 0 -0
 15144.218672331896 23860.275160893507 -999600.59019092796
 9240.2221974671193 24037.447819559446 -999668.35470373044
 4119.0494777850217 24337.485041705771 -999695.31370975461
 459.18367671178231 25062.441770819449 -999685.78221500944
 -1903.7321188511862 26106.72128256852 -999657.34874900687
 -3264.209563187489 27326.360323521076 -999621.23575252085
 -3889.0293480794885 28584.637065473729 -999583.81038038281
 -4004.3860115136004 29776.11015210937 -999548.57218490378
 -3794.5371780383093 30833.744566135607 -999517.32435392763
 -3402.0203091339076 31724.075062869269 -999490.87505550613
 -2930.2266803472808 32437.651430774476 -999469.46553722047
 -2448.1136462228255 32979.504762172124 -999453.02991447144
 -1996.0914852737137 33361.871551050455 -999441.34452472674
 -1592.2076736287502 33599.630284890452 -999434.10474099929
 -1238.0268814796507 33707.989733633658 -999430.95745406952
 -923.846855582898 33701.661358376747 -999431.51067427977
 -633.06627348383938 33594.748892827018 -999435.33661459142
 -345.60549092967346 33400.786989387299 -999441.97829855746
 -40.313707825555824 33132.599974108314 -999450.96387654787
 303.65112590809429 32801.845290445999 -999461.82855651632
 706.38574342035656 32418.188871799306 -999474.14276180952
 1187.5273329627732 31988.071240150697 -999487.54523364059
 1766.924969637724 31513.006555375632 -999501.78008545493
 2465.3744436124489 30987.392757928646 -999516.73493689857
 3305.3422118756466 30395.886116650287 -999532.47311933083
 4312.0954101421157 29710.519655165772 -999549.24383693771
 5516.4416525339811 28887.891814442122 -999567.43573308317
 6961.4037917304067 27867.144740911044 -999587.39542935276
 8716.0792883512568 26571.017969500241 -999608.92901469418
 10898.330624129256 24918.022497367467 -999630.09085582639
 13688.242259521981 22875.300498651584 -999644.61317557283
 17166.356184780943 20671.986523813845 -999638.92740753968
 20143.496952850397 19791.763211407106 -999601.183292364
 -0 -0 0
 0 0 -0
 15774.006309383054 22121.126192504515 -999630.85011464451
 10456.063700648216 22372.712381934169 -999695.01972979889
 5524.216040225183 22936.281395371614 -999721.66628161725
 1958.5619269847798 23922.638554207504 -999711.89419741475
 -372.24835565762896 25196.119973901736 -999682.45806827222
 -1763.5090694376993 26611.717549896395 -999644.28999760025
 -2478.8426276983655 28052.878073791588 -999603.36702664429
 -2729.5378522789106 29434.206362482953 -999562.99307193444
 -2680.9203694453608 30699.95842838661 -999525.0498203974
 -2459.0434595279653 31819.25112160639 -999490.61444484023
 -2155.8194814941271 32779.435275197371 -999460.28488649905
 -1833.6066920342607 33579.573828678862 -999434.36508256174
 -1529.8028641583999 34225.291639967414 -999412.97225689236
 -1261.537426145579 34725.402555992936 -999396.09511977097
 -1030.3527396555689 35090.135337538391 -999383.62042572256
 -826.68569078642417 35330.492101774347 -999375.34136009926
 -633.9394243706746 35458.215978795473 -999370.95867370849
 -431.93305169377123 35485.916848974332 -999370.08317200828
 -199.55688433434267 35427.044157061056 -999372.24532170373
 83.449151329299809 35295.520515257231 -999376.91551676171
 435.53543219808631 35104.946309648716 -999383.53651312646
 872.99591878675449 34867.330259566152 -999391.56848489377
 1409.9308053899397 34591.333193892024 -999400.54620907293
 2058.2371166524854 34280.031288194426 -999410.14759449591
 2827.5371263520174 33928.231799295339 -999420.27201811958
 3725.3460484589677 33519.377536092834 -999431.12475368322
 4758.4320927351937 33022.063399235318 -999443.29536641319
 5937.376851082563 32386.209487659573 -999457.79350163159
 7288.0008437351016 31539.335264720539 -999475.94036813162
 8875.2951585765877 30385.310723769802 -999498.85544109985
 10840.730889443264 28816.847597929154 -999525.92154896143
 13388.00350503425 26800.648959205195 -999551.14255225309
 16264.638475316169 24810.305265079882 -999559.85828159447
 0 0 0
 -0 -0 0
 17257.511375037891 20116.167222225879 -999648.6973519387
 11913.553479350081 20456.348428706591 -999719.76325991389
 7066.1483940144417 21247.752490284784 -999749.26984768792
 3580.5014866985698 22424.847086787864 -999742.11987003835
 1279.7260216356522 23854.509444205047 -999714.62161983305
 -135.07784810817702 25410.48072603171 -999677.09247698926
 -921.91107593218783 26993.86285558184 -999635.17417510995
 -1281.4000095021897 28533.012408882052 -999592.02938843518
 -1366.2163158264993 29979.707627875105 -999549.57384990435
 -1290.8617317953363 31304.512460702044 -999509.06007678935
 -1138.4847259177238 32491.846320900178 -999471.3521533208
 -965.71398157724593 33535.413682537401 -999437.06326393911
 -806.63600002116243 34434.580208311156 -999406.62846723234
 -676.57003597892412 35191.962961758094 -999380.34200993017
 -575.89591389851773 35812.173011091625 -999358.37246111059
 -493.93811636622075 36301.440658383777 -999340.76341919659
 -412.75065979671274 36667.758933454927 -999327.42636820022
 -310.57623105089039 36921.190502584897 -999318.13214525254
 -164.75574706160066 37074.03888224296 -999312.50792557455
 46.046990456719136 37140.671534760564 -999310.04618067434
 340.30206513938617 37136.857113692669 -999310.13105953345
 732.59386187298765 37078.550782114253 -999312.08557593857
 1232.8653117482359 36980.108744035737 -999315.24135299877
 1845.658996341738 36851.955276144748 -999319.03160862229
 2569.215750939647 36697.73740495948 -999323.10850884556
 3394.5679538845293 36510.990721713722 -999327.48609498644
 4305.2444065988711 36271.275925335154 -999332.70706674445
 5279.0190712450931 35939.663987212647 -999340.01846725424
 6294.5706284031266 35453.458705677331 -999351.50505035452
 7348.2834655512361 34720.810668023638 -999370.03559075424
 8488.6059210341537 33621.22616191172 -999398.59751797072
 9864.3507160731733 32049.445039645805 -999437.60568511765
 11593.214982918053 30200.852783940794 -999476.61596331629
 -0 0 -0
 27535.272446402982 18120.651542271065 -999456.57772560907
 20453.493057142608 18245.92674706192 -999624.29981413635
 13809.273702631359 18534.138161337291 -999732.85915909696
 8775.1654123235367 19406.841907833325 -999773.15975132608
 5300.6660353228071 20686.893232646224 -999771.95169096603
 3018.0362506317165 22208.438892604652 -999748.80680055986
 1588.3371160776171 23851.426358093795 -999714.25249712728
 749.72591389349554 25529.701973071369 -999673.78290531365
 307.22998755166651 27182.117028481331 -999630.45077847876
 116.27879523931875 28766.457218673921 -999586.15307452506
 70.218381312943862 30254.804270268931 -999542.21616095165
 92.259449341452822 31629.619047804284 -999499.65417056787
 130.32570480937136 32880.437749973549 -999459.2837272468
 153.35178085981408 34001.329046085229 -999421.77588159987
 148.07910512131821 34989.229171682695 -999387.67848845827
 115.84180486711178 35843.138602671621 -999357.42154435697
 69.173603079292846 36564.023706032975 -999331.31011964055
 28.289162594412574 37155.180454533693 -999309.50749260595
 17.630992276423793 37622.774611465073 -999292.01263678807
 62.705424476228558 37976.282733355867 -999278.63882792264
 187.38263766252962 38228.590682843176 -999269.00269254355
 411.71169436529397 38395.568443724747 -999262.53348024795
 750.16274129192993 38495.00341274606 -999258.51108114864
 1210.0924184705373 38544.84824386274 -999256.13851013989
 1790.1929678121253 38560.794070963348 -999254.65241336508
 2478.7457321517218 38553.221217894221 -999253.47382599534
 3251.6859662044308 38523.577769027776 -999252.4007948396
 4070.8449424353621 38460.209914420455 -999251.84036597761
 4883.4416352423186 38333.647056468624 -999253.06279297697
 5625.3765656827327 38091.534382515216 -999258.42010306811
 6234.1589293166262 37654.415584424562 -999271.37467728951
 6684.4854467999512 36917.125802811614 -999295.97391201893
 7069.1786418831325 35769.500415327311 -999335.06370654632
 7667.6184242399404 34174.895158823216 -999386.45386486186
 7999.422316201104 32725.439490219098 -999432.36632239353
 28128.680269034601 15688.117601470423 -999481.19557720772
 21706.646554023719 15916.509563195583 -999637.67747054412
 15299.627514779491 16424.214302002787 -999748.05155222525
 10420.783295678571 17414.760356964576 -999794.045489977
 7033.5043182547843 18766.652728095421 -999799.15111105621
 4790.0759423198333 20337.456761318525 -999781.69768452353
 3360.6035084083233 22022.786857784205 -999751.82080508175
 2489.4303480310919 23749.748708745337 -999714.83542698983
 1987.4661571936547 25467.069222040533 -999673.68594132457
 1715.9152914603228 27138.500234413175 -999630.21034767595
 1573.3746259114355 28738.449789322229 -999585.72718701488
 1487.3717726310297 30248.801825256192 -999541.29365091608
 1409.0659397088862 31656.481565090093 -999497.81475904025
 1309.7077745691613 32951.671446389941 -999456.08808713255
 1177.8126049824118 34126.697211635481 -999416.8205983392
 1016.4121389514115 35175.577762099128 -999380.63100875937
 840.07663027562876 36094.162363185445 -999348.04033157311
 671.65870351678336 36880.696614300039 -999319.44997174444
 538.87045934469199 37536.6005072798 -999295.10818425659
 470.89108068317353 38067.201582250105 -999275.07045121782
 495.18643794303262 38482.165177722243 -999259.16445816308
 634.6465031378001 38795.387216928313 -999246.97405321384
 905.02181377241379 39024.177164728899 -999237.85683496401
 1312.532094772371 39187.632142923198 -999231.00769868563
 1851.448809136253 39304.188788375955 -999225.57657467655
 2501.4633067015125 39388.398809512859 -999220.84481887601
 3224.7577169655951 39447.005565099207 -999216.46037763695
 3962.9866971291635 39474.378196362632 -999212.72419963137
 4635.0737009169206 39447.328960887535 -999210.90082606603
 5138.4333889371428 39319.384802827662 -999213.48193518398
 5360.349593637683 39014.946889590145 -999224.24939121492
 5215.3300839971644 38424.76019571635 -999247.88623044698
 4737.6963239195302 37407.052385926414 -999288.88048718881
 4236.6778179528856 35828.225495300918 -999348.98249756801
 4287.6213118987453 33937.439366423401 -999414.7620046126
 29277.386496875795 12687.877939018577 -999490.79655258323
 22967.912066631132 13258.87336741228 -999648.27679155569
 16759.08674239575 14103.439783877468 -999760.08421912068
 12046.903901815518 15266.683331548933 -999810.88236047642
 8756.9820425202088 16691.596002495717 -999822.33716215624
 6558.6429973486465 18288.929932734813 -999811.23180525855
 5137.7794852059869 19983.212665744566 -999787.11455665238
 4247.766733357299 21718.767027492777 -999755.09582926577
 3705.0010647161184 23455.337893166667 -999718.02028943552
 3374.6847568054441 25163.428062175877 -999677.65474224358
 3158.6321456844521 26820.892315849873 -999635.26487331861
 2986.9202897204177 28410.519534721658 -999591.87706130836
 2812.6038668781762 29918.273861385744 -999548.39109902177
 2608.2943739384491 31332.060534215063 -999505.6271893318
 2363.6070056366102 32640.999895309149 -999464.34578115749
 2082.7791947899459 33835.222905682444 -999425.25469479128
 1782.0670244079972 34906.165509449718 -999389.00526599132
 1486.7573428850328 35847.278801447297 -999356.1738214934
 1227.823485352752 36654.995322030714 -999327.2255709992
 1038.3547359942731 37329.729207690361 -999302.46328963025
 949.93414789013548 37876.641444569759 -999281.97104620771
 989.09753510609391 38305.899934769513 -999265.57016453508
 1173.9304981446758 38632.198369945327 -999252.80842051713
 1510.7529424085137 38873.379143216815 -999243.00248715014
 1990.7602539409602 39048.099379723331 -999235.34905869002
 2586.441679444637 39172.575425127623 -999229.11269338091
 3247.6366368072236 39256.493103753659 -999223.88912869303
 3897.2935163350994 39298.170536613354 -999219.92819184822
 4427.6332445066701 39278.984046740494 -999218.47334609856
 4699.1193192479523 39156.963837526964 -999222.02260591218
 4548.8676570048001 38859.501557394746 -999234.33034586522
 3824.8758560506349 38276.275879685025 -999259.8746219466
 2483.0890021571836 37261.635580851515 -999302.45910977665
 823.40959271075576 35700.893556050214 -999362.18069123593
 -97.637953335601694 33871.154597077642 -999426.2030550784
 30876.508559413382 9800.2676551984223 -999475.16025815625
 24544.4235259864 10582.563939648642 -999642.72648493806
 18368.698217991987 11674.936827476113 -999763.11533075233
 13718.43086196607 12992.978541825756 -999821.47764653305
 10476.233922308435 14484.219312671235 -999840.21519126114
 8301.9896820695067 16093.652167727565 -999836.0222192551
 6884.297152899836 17773.318169135171 -999818.34130704403
 5980.0919094979408 19485.897936508994 -999792.24756064301
 5408.2350573325539 21203.098091071781 -999760.56114697026
 5035.6402788781825 22903.044754886498 -999725.00862384005
 4765.414080464202 24568.118479469311 -999686.80014443549
 4528.5860504508682 26183.354331197632 -999646.89959222614
 4278.81111571163 27735.274120206304 -999606.1456118169
 3989.0088482618294 29211.072683702481 -999565.30604111915
 3648.993270531314 30598.163083253265 -999525.10586980346
 3263.3919747984742 31884.119741282975 -999486.24461827509
 2849.3806797690991 33057.048158982587 -999449.40472079744
 2433.9857895797149 34106.356839889799 -999415.24509899586
 2050.8727960919309 35023.833638398486 -999384.37300072075
 1736.6820213293199 35804.840957286535 -999357.2921130762
 1527.0388028276946 36449.374885564874 -999334.33405589848
 1452.3917928077194 36962.692111265365 -999315.59076698485
 1533.7853819108655 37355.225296267141 -999300.87293340592
 1778.6048872064978 37641.570992923262 -999289.72210157325
 2176.2337906880944 37838.445784844596 -999281.49989233539
 2693.4873955869698 37961.622327757468 -999275.56777692435
 3269.6498912049778 38021.957813188295 -999271.55474057258
 3811.0656900771805 38020.664811816932 -999269.68573332275
 4185.7641908902524 37943.947417164069 -999271.10247046652
 4220.2200138825292 37757.061892247628 -999278.03639442555
 3704.7500481289994 37398.060540645798 -999293.58043313748
 2425.672237606721 36773.304000132324 -999320.6893820971
 273.43741044090513 35765.88575450881 -999360.15862559667
 -2445.5359722881462 34303.168449694684 -999408.48104672413
 -4337.0951467318646 32646.476891646285 -999457.55145091168
 32771.390161588526 7027.2072077611056 -999438.16934602626
 26380.496276317113 7923.5790787301512 -999620.5711722814
 20137.790393032352 9179.7141029230515 -999755.07112846151