# OOMMF OVF 2.0
#
# Segment count: 1
#
# Begin: Segment
# Begin: Header
#
# Title: Oxs_TimeDriver::Magnetization
# Desc: Oxs vector field output
# Desc:  MIF source file: /mnt/gpfs/work/plgrid/groups/plggspinsym/MF/switching-obrazki/p-ap/Anisotropy.mif
# Desc:  Iteration: 54000, State id: 378150
# Desc:  Stage: 0, Stage iteration: 54000
# Desc:  Stage simulation time: 7.94847e-09 s
# Desc:  Total simulation time: 7.94847e-09 s
# meshunit: m
# meshtype: rectangular
# xbase: 1.0000000000000001e-09
# ybase: 1.0000000000000001e-09
# zbase: 3.4999999999999998e-10
# xnodes: 35
# ynodes: 35
# znodes: 5
# xstepsize: 2.0000000000000001e-09
# ystepsize: 2.0000000000000001e-09
# zstepsize: 6.9999999999999996e-10
# xmin: 0
# ymin: 0
# zmin: 0
# xmax: 7.0000000000000005e-08
# ymax: 7.0000000000000005e-08
# zmax: 3.4999999999999999e-09
# valuedim: 3
# valuelabels: Magnetization_x Magnetization_y Magnetization_z
# valueunits: A/m A/m A/m
#
# End: Header
#
# Begin: Data Text
 -0 0 -0
 0 0 -0
 -0 -0 0
 -0 0 0
 0 0 0
 -0 0 -0
 0 0 0
 0 -0 0
 -0 0 0
 0 0 0
 0 0 0
 -0 -0 0
 0 0 0
 18063.406811216384 32709.193703994442 -999301.66715642344
 15664.172196366704 32193.882301812442 -999358.88831377274
 13541.68912722586 31594.070683080212 -999409.04406216682
 11937.381485491351 31119.494901450722 -999444.38362539618
 10552.16535085919 30825.433665323471 -999469.08128553571
 9052.0378942923562 30737.208189025827 -999486.51048561162
 7116.0139254694814 30876.585279255771 -999497.87334806542
 4527.8349725260205 31223.062189914996 -999502.18563940446
 1812.6700716875739 31579.068240930366 -999499.61314462055
 0 0 0
 -0 0 -0
 -0 0 -0
 -0 0 0
 0 -0 0
 -0 0 0
 -0 -0 0
 0 0 0
 0 -0 0
 0 -0 -0
 0 -0 0
 -0 -0 0
 0 0 -0
 -0 -0 -0
 -0 -0 -0
 -0 -0 -0
 -0 0 -0
 0 0 -0
 0 0 -0
 -0 -0 0
 0 0 0
 0 0 -0
 0 0 0
 23063.622735570003 31267.927043433447 -999244.90794034977
 21051.35133949533 29818.526788204432 -999333.62600633141
 19462.264609556772 27780.253849238125 -999424.57331823662
 17582.261777727854 27102.221153701918 -999478.03061363741
 15271.897681839027 25997.11158429406 -999545.35631479439
 13373.657547516261 25194.718312522407 -999593.10294386989
 11919.626511829212 24679.320307277489 -999624.35627238965
 10655.725786767147 24409.519925184664 -999645.25249959517
 9306.801853354862 24395.984523470546 -999659.05156627938
 7622.7794688438871 24703.229800690384 -999665.76597910165
 5466.6206130241053 25438.687768795749 -999661.43729948648
 3186.5381051846148 26594.326550594029 -999641.22952698602
 1885.4495858893674 27124.267917884663 -999630.29124260624
 96.263333234324776 28464.058307778607 -999594.81197034125
 -2401.9435714995216 29353.890682266388 -999566.19579140085
 -0 0 -0
 0 -0 0
 -0 0 -0
 0 -0 -0
 -0 0 0
 -0 0 0
 -0 0 -0
 -0 0 0
 -0 0 -0
 -0 0 0
 0 -0 -0
 -0 0 -0
 -0 0 0
 -0 0 0
 -0 -0 0
 0 0 -0
 0 -0 -0
 -0 -0 0
 27829.372296811856 29206.037655579265 -999185.93535038619
 25268.98454486101 27416.680800127408 -999304.66026831663
 22461.020738894753 26095.329711506336 -999407.09238758904
 19889.316451916129 23986.713340974224 -999514.40843750397
 17943.865350049713 21864.09184228925 -999599.90955592389
 16160.13011971161 20238.367859016573 -999664.57307484758
 14403.797590355442 18967.757618095442 -999716.33716065541
 12933.442569776216 18126.933068393173 -999752.03943819413
 11753.715031456823 17623.180369675978 -999775.61167324788
 10711.332720541202 17391.040338690011 -999791.38777411368
 9624.4139090856206 17431.347433535109 -999801.73973821336
 8336.5996419123294 17805.582675956714 -999806.71248595847
 6782.5457966123031 18611.897694914747 -999803.77791680244
 5101.7937223177405 19872.894595064285 -999789.49772501027
 3506.0021460786211 21307.137930346278 -999766.82972689648
 1420.6265735203835 23038.688329072575 -999733.564836259
 -1394.2290094544198 24855.427595957124 -999690.0838982506
 -4183.4262172878061 25839.472547268524 -999657.35159781796
 -7083.7192752825113 26922.8041890186 -999612.41665749054
 -0 0 -0
 -0 -0 -0
 0 0 -0
 -0 0 0
 -0 0 -0
 0 0 -0
 0 -0 -0
 -0 -0 -0
 -0 -0 0
 0 0 0
 0 0 0
 0 0 -0
 -0 0 0
 0 0 0
 -0 -0 -0
 30267.648322318608 25608.478139002629 -999213.72854481975
 26986.651718478126 24490.370965133749 -999335.75056585262
 23469.166588166408 22056.654573118987 -999481.21653620829
 20510.078899888907 19740.11541872186 -999594.75013966335
 18128.937265828197 17588.447353122523 -999680.94317803101
 16308.948254020166 15734.819683725191 -999743.18385091692
 14811.116679036648 14267.925679965267 -999788.50619494065
 13508.730696800849 13172.642637579547 -999821.98199524696
 12424.223413947719 12434.303175690889 -999845.50145364751
 11529.386531141781 11989.888275870799 -999861.64834208309
 10731.722626913814 11793.539312591385 -999872.86319808743
 9919.7730041885643 11842.913468075139 -999880.66463160131
 8997.4305708187349 12175.803584249239 -999885.39145754161
 7913.4007102066344 12846.998716800135 -999886.15987679816
 6672.1655761513475 13874.256910927284 -999881.48657813133
 5236.0462030039389 15198.697060584629 -999870.7833654409
 3339.8358757232018 16856.850021067996 -999852.33514939132
 802.06197737820287 18844.855322319039 -999822.09823771392
 -2327.5816502105417 20950.056336298559 -999777.81406828982
 -6088.0873796693904 23111.966076909674 -999714.34530875727
 -9290.4289276241307 24087.170403978624 -999666.69252920034
 -0 -0 -0
 0 -0 0
 -0 0 -0
 -0 -0 -0
 0 -0 -0
 0 -0 -0
 0 0 -0
 0 -0 -0
 -0 0 -0
 0 0 -0
 -0 0 0
 -0 0 0
 -0 0 -0
 31760.199448052575 23474.103420167659 -999219.82376233872
 28572.454890144752 21688.143451924356 -999356.4125251607
 24599.789252955794 19045.295891069742 -999515.94638261374
 21153.63782371478 16452.429062248757 -999640.85610021697
 18478.63384366699 14246.367444348285 -999727.75349387608
 16447.19130737981 12407.919875093021 -999787.74418497039
 14914.221894862994 10912.508445667203 -999829.22699063644
 13716.087770421793 9741.7693513614013 -999858.47341820283
 12744.528385602778 8869.1946947931647 -999879.44992468704
 11954.512602551322 8266.3329559865597 -999894.37310542748
 11301.814685061401 7894.5177943891358 -999904.96827129461
 10723.253091197297 7726.4265859247798 -999912.65327295195
 10147.531664284732 7759.2048898385101 -999918.40784165962
 9509.4174860084149 8012.9505894619269 -999922.67881168087
 8758.0294468636603 8517.9205612476762 -999925.36818980647
 7847.8600123009537 9295.2548968745286 -999926.00192695716
 6695.6135814200679 10355.237399269023 -999923.96601800318
 5139.0198939037355 11742.187455404406 -999917.85238003056
 3011.8009919999104 13507.895444042149 -999904.22832162178
 181.17288607425732 15673.592574538628 -999877.14528945647
 -3431.8431462915914 18260.697256523661 -999827.36979356839
 -7358.2731607380802 20881.864035868992 -999754.87174130802
 -10210.559163017624 22464.166500854968 -999695.50649435259
 0 -0 -0
 -0 0 -0
 0 0 0
 0 0 -0
 0 -0 0
 -0 0 0
 -0 0 0
 0 -0 0
 -0 -0 -0
 -0 -0 -0
 0 0 0
 32960.879643783272 22375.042429690679 -999206.15384883294
 29786.294277671328 20151.255665931931 -999353.14257187885
 25702.333844165674 17098.177849020543 -999523.40760444733
 21956.734904679393 14273.56741538361 -999657.02471675968
 18965.509329391538 11935.179688183012 -999748.89894497383
 16710.117089847423 10068.28561491023 -999809.68269547191
 15036.710670966915 8583.2590062866238 -999850.10126369866
 13794.286277253312 7409.3713288704139 -999877.40192616207
 12854.682000447026 6499.0649051237633 -999896.25427142507
 12127.221418584786 5817.553854447975 -999909.53919232893
 11555.111363111662 5336.6480033433572 -999918.99651395483
 11092.45917777238 5030.956547150201 -999925.82066151814
 10691.451815433276 4884.0295325539828 -999930.91717058315
 10302.121575688159 4893.5041225953546 -999934.95783897943
 9875.6163491221905 5070.5443017711796 -999938.37899253005
 9364.2251534291354 5434.6979089503957 -999941.38595515396
 8712.8996359395296 6008.6071770110175 -999943.9894412721
 7841.0350007442203 6821.3556897005419 -999945.99217991368
 6629.7692899021531 7923.0603201357226 -999946.63421320962
 4937.8015346797638 9384.016377816517 -999943.77759583306
 2617.1640178183984 11289.522343952687 -999932.84631406574
 -446.47996271357783 13728.120654458929 -999905.66522994544
 -4163.1351091823926 16648.912848612457 -999852.73015930806
 -8006.2683146109803 19624.534500840073 -999775.36342585471
 -10745.932228932483 21479.466945310149 -999711.53711471998
 0 -0 0
 0 0 0
 0 -0 -0
 0 -0 0
 0 -0 -0
 -0 -0 0
 0 -0 -0
 0 -0 0
 0 0 -0
 34358.096604630649 21693.772364820466 -999174.1096717281
 31013.722917446274 19313.269121489993 -999332.35043534974
 26766.038635429391 16036.814230306489 -999513.08133766276
 22824.937814943554 12989.250347067207 -999655.09131358156
 19593.785240757021 10498.417214100677 -999752.9028794755
 17108.499431702658 8548.771012621728 -999817.09215304442
 15259.898210293868 7037.9001203592434 -999858.79176437075
 13903.687037526901 5862.6700743419542 -999886.15181247611
 12911.027594450999 4947.0575763405932 -999904.41142530809
 12179.64185848074 4240.0460814055868 -999916.83570856368
 11634.921255061467 3707.1277604862958 -999925.44012599043
 11224.290513601596 3323.7520097985066 -999931.4816401389
 10906.334916410584 3071.9436204104186 -999935.80545007205
 10642.87974370506 2941.164570480581 -999939.03747265018
 10395.990168525012 2929.8223062947905 -999941.66806352756
 10126.967016336848 3045.1186099059473 -999944.08433256997
 9794.0021363702945 3301.5638058331133 -999946.58717282931
 9346.3691922624239 3720.3759974489685 -999949.40081254102
 8715.7363811545238 4332.6709521160255 -999952.63082895812
 7809.9347125563781 5186.1808292211208 -999956.05325843813
 6514.7425291443551 6348.9919263307202 -999958.62335963594
 4700.0700698824103 7910.3465193754027 -999957.66698359884
 2240.2901449647961 9970.7003614727328 -999947.78175381164
 -927.43841621452032 12587.703405890523 -999920.34161774593
 -4704.8456048920452 15665.0194873195 -999866.22684852011
 -8626.1636335962812 18718.544508160634 -999787.5801351316
 -11515.914462926581 20549.887022123519 -999722.50442683348
 0 -0 0
 0 -0 0
 0 0 -0
 0 0 -0
 0 0 -0
 0 -0 0
 -0 0 -0
 36498.56041882182 20872.161287035618 -999115.71300353471
 32694.021842854698 18651.190488883425 -999291.36593342293
 28075.316594128682 15393.49730504408 -999487.27697698062
 23840.481490393493 12271.862193026031 -999640.45178285067
 20359.244788581709 9678.1296027296485 -999745.88519234804
 17648.581618233387 7644.4330244124521 -999815.0279979792
 15607.138938387574 6082.7640424825477 -999859.69875566103
 14102.341208864094 4885.986516181305 -999888.61935127166
 13007.320696222248 3963.0645560380799 -999907.54759009089
 12216.496691830514 3247.6490150483928 -999920.10180036549
 11648.036254768263 2694.6616538073572 -999928.52847089979
 11241.20508693213 2274.0349090307382 -999934.22987385828
 10951.15072101554 1965.5806453439275 -999938.1024796546
 10742.441070454164 1756.0187775459242 -999940.75642404985
 10583.81359248459 1638.2066051039285 -999942.64793984988
 10444.970560428139 1611.2534319131753 -999944.15166666685
 10294.390089299017 1680.4907930829684 -999945.59926197166
 10096.704631051705 1857.3599481795864 -999947.3019962681
 9808.7341923622807 2160.0965217744551 -999949.56008618756
 9374.5166088981132 2616.16247654882 -999952.6359444462
 8721.0460664745351 3266.1207750943113 -999956.636965118
 7756.3437692128027 4166.9986710981148 -999961.2368754145
 6369.8427701484243 5393.6820611419053 -999965.16604175104
 4438.1616016876405 7033.7801538375152 -999965.41373106756
 1842.476493458247 9165.4508902338366 -999956.2989402836
 -1495.1928674712995 11808.268948653082 -999929.16208235745
 -5519.2652544837993 14816.041001192938 -999875.00350798923
 -9805.1713059891244 17656.395437828367 -999796.03435690992
 -13182.962203628411 19113.828743001672 -999730.399186861
 0 0 0
 0 0 0
 -0 0 0
 0 -0 0
 -0 0 -0
 39904.282975997201 19039.236999125354 -999022.0996828163
 35364.066960342214 17624.520903962082 -999219.07459321967
 30031.093617019778 14761.285992380472 -999439.9621047863
 25255.171073581005 11780.796418222993 -999611.61916506162
 21381.454891999867 9204.3352485234918 -999729.02008460986
 18377.24394027505 7139.2965201125726 -999805.63478626066
 16106.621425994703 5539.508368753236 -999854.93477467622
 14421.812979685517 4315.1499264347876 -999886.68897605187
 13190.12403436444 3377.4375117836821 -999907.30247549049
 12301.377936447427 2654.1907837519907 -999920.81255074788
 11668.713764674394 2092.522910431951 -999929.72876445041
 11225.969755531707 1655.9407183202673 -999935.61565902084
 10923.643030364961 1320.0366899066312 -999939.46393073327
 10724.335997112157 1068.8186282622114 -999941.92143552052
 10598.231454294708 892.3354646317664 -999943.4390141574
 10519.332885328264 785.58690542871602 -999944.36169662024
 10462.683541376182 748.19067284859227 -999944.98471857456
 10402.147709599056 784.36786217801171 -999945.58856474026
 10308.078811399551 903.20560664971993 -999946.46243228938
 10144.441011904584 1119.5100135612217 -999947.9171506312
 9865.3942905782042 1455.5265933222565 -999950.2764826999
 9411.7965916446537 1943.3520344941473 -999953.8196675824
 8707.9768646856373 2627.2450295898489 -999958.63350564579
 7658.7922178425115 3564.7486072013244 -999964.31709793082
 6147.6040334735517 4824.3007190061371 -999969.46607744985
 4036.9679700949609 6475.1631678946424 -999970.88715199963
 1176.8060295469313 8563.6441796512609 -999962.63886503933
 -2561.2064597188523 11060.378647307336 -999935.55204605497
 -7171.896052814006 13744.200736138564 -999879.8232053353
 -12214.953642946777 15968.044465954228 -999797.88780704758
 -16266.385010827607 16437.086926751537 -999732.57768867491
 0 0 0
 -0 -0 -0
 0 -0 -0
 0 0 -0
 38187.939889879344 15991.994312225286 -999142.60111601918
 32901.477201112808 13897.175843088162 -999361.97711418394
 27392.886172985352 11280.613103634612 -999561.09245764441
 22887.348577571262 8858.6774500255215 -999698.80119410239
 19426.184956915051 6844.0799348341279 -999787.86845403642
 16829.491444926796 5248.2835733120091 -999844.59979400737
 14906.25304583551 4012.8346911892713 -999880.84328977682
 13496.660938241524 3063.629494577322 -999904.22257226112
 12475.137967299528 2332.7435508994436 -999919.46137687645
 11745.336320283335 1765.7588617754277 -999929.46209738497
 11234.443694923728 1322.4679629245684 -999936.01712977246
 10887.955627127561 974.72738895831412 -999940.249379321
 10665.050727786947 703.57536210606634 -999942.87920594926
 10534.511997924852 496.69707814539026 -999944.38712809316
 10471.206583162229 346.65755282073707 -999945.1153244531
 10453.19726999317 249.91278799690403 -999945.33261095476
 10459.460236517234 206.40085552942935 -999945.27704782295
 10467.938170614892 219.50398134817564 -999945.18554191676
 10453.589725523429 296.34134395713619 -999945.31582664966
 10386.132531187628 448.46622373134426 -999945.96210449829
 10227.356437178245 693.04385529647959 -999947.45905498532
 9927.9485930779974 1054.3840246561217 -999950.1608135585
 9423.7116733190032 1565.4632463274672 -999954.37045053323
 8630.8422445968718 2268.7950633330556 -999960.17977272952
 7440.0345325023454 3215.5123994728219 -999967.15264360758
 5709.7076206411875 4460.7240938260411 -999973.75024519779
 3261.0252620019255 6051.8706059046935 -999976.37000901671
 -113.82898873735915 8002.7706648094672 -999967.9708393903
 -4590.5837251891371 10237.923845766574 -999937.05374707968
 -10056.377826288179 12478.870839368252 -999871.56527605548
 -15114.529200413055 14059.625560231438 -999786.91626573913
 -0 0 -0
 -0 -0 -0
 0 0 -0
 42347.266868427192 14224.47567459657 -999001.68832718034
 37035.556664241973 13059.469327031258 -999228.61138153262
 30646.851044472063 10783.011057405602 -999472.10926248145
 25190.601256430236 8547.6021981414233 -999646.12343819032
 21009.947186920148 6634.5304742778553 -999757.25309926539
 17910.215861010423 5085.5248855882392 -999826.66577984917
 15637.392146001343 3866.6845023455176 -999870.25194163632
 13979.976182733508 2920.7329249912691 -999898.00959153392
 12778.474063040039 2189.0779484759573 -999915.95573745889
 11915.85168210255 1620.9403431185704 -999927.68990117195
 11306.678994553838 1176.1672994558523 -999935.38573279709
 10888.483751071572 824.95743043798461 -999940.37840605294
 10615.303774912276 546.23913460004144 -999943.50687855086
 10452.830948407443 325.71134049246012 -999945.31462339801
 10374.666795591846 154.11245226824138 -999946.16982027201
 10359.366020486726 25.947253884038975 -999946.33999149862
 10388.103599874261 -61.290143148681295 -999946.04031773459
 10442.788059307115 -107.48723747332339 -999945.46682508732
 10504.42591080965 -109.96347452838998 -999944.82094979531
 10551.478505928713 -63.249839052434602 -999944.32960080157
 10557.993583528538 41.419746544899709 -999944.26197458361
 10491.285914575285 216.89933219065475 -999944.94142154569
 10308.95017118915 481.14477210718104 -999946.74560502276
 9954.847745382549 858.26445931773685 -999950.08094828611
 9353.5724449438458 1379.3117694912607 -999955.30309187295
 8402.7986398733847 2082.3070898604728 -999962.52778401715
 6963.2619446188219 3010.6895543390856 -999971.22395171854
 4847.8404050857598 4208.8004501002497 -999979.39200874441
 1817.6894858319877 5711.5818351984717 -999982.03675759747
 -2385.0565585059217 7522.2603336397106 -999968.86306758877
 -7866.3176187386798 9558.2893623933669 -999923.3771402617
 -13974.787528604564 11459.261639963677 -999836.68198171095
 -18450.004578733708 11942.647915477184 -999758.45607417193
 -0 -0 0
 0 0 -0
 40852.770760957377 11720.485359738101 -999096.43245488824
 34925.443148336715 10252.392393403083 -999337.33137069573
 28541.636911146383 8274.5060269485366 -999558.35623161204
 23385.932477089515 6467.4542065475816 -999705.59176102595
 19541.984467434617 4978.9968565161353 -999796.63953895017
 16745.681609783911 3795.976714612355 -999852.57548710937
 14725.266602840515 2870.0664754693416 -999887.45828813245
 13268.789486867181 2149.4935220138918 -999909.65537050006
 12222.932253279736 1588.0713824338795 -999924.03609295038
 11479.112404043415 1147.8782506401735 -999933.45396278077
 10960.48569241298 799.49954404428661 -999939.61245360482
 10612.208907790018 521.1600806593915 -999943.55311400851
 10394.542494936546 297.39299395453679 -999945.93106013897
 10277.987172085048 117.65559407692571 -999947.17317308893
 10239.773666908537 -24.872170351360161 -999947.57183395664
 10261.269797282464 -134.18556268183889 -999947.34278179985
 10325.995436520763 -212.03769576331052 -999946.66300671303
 10418.041365908653 -258.23365237001258 -999945.69739035273
 10520.674273465564 -270.69099218940272 -999944.61953611136
 10614.938903808101 -245.28692163436762 -999943.62986440107
 10678.027891099502 -175.51010421920515 -999942.97283223132
 10681.198545363362 -51.915732693567314 -999942.95302401704
 10586.921485103489 138.57705227357215 -999943.94737398601
 10344.858805070009 413.49046583141597 -999946.40502475807
 9886.0839998266365 795.58534552932883 -999950.81498397014
 9114.8886858173064 1313.5101406534923 -999957.59584862168
 7897.7272141395415 2002.0528384836521 -999966.80829379708
 6050.2859493738515 2901.4711043481921 -999977.48749927443
 3328.7658075101499 4054.1922378006984 -999986.24132709845
 -552.11241274718054 5492.5283949513478 -999984.763535782
 -5802.6389055255822 7192.7007692528296 -999957.29630688555
 -12140.619682708835 8918.3727079405508 -999886.52755298303
 -17608.372867713562 9949.1560640830521 -999795.45883073704
 0 0 0
 -0 -0 0
 39021.510952731434 9703.5129900325137 -999191.2547248489
 32945.599442974853 8068.8025791008067 -999424.57539440296
 26787.491417140616 6349.6478712658309 -999620.98431129754
 21956.856277370127 4902.3002521589551 -999746.89992750285
 18410.423689777621 3752.7849604839439 -999823.47087103513
 15858.827245623812 2855.0711370732015 -999870.16465498938
 14032.224101936232 2156.531608482398 -999899.21795057657
 12726.197845182247 1611.796328326348 -999917.7196154698
 11795.651316702348 1184.3786819196346 -999929.72745946131
 11139.695627710349 845.89205999713568 -999937.59387671028
 10688.250825104407 574.8811371223735 -999942.71376213245
 10392.128291714569 355.61589159896261 -999945.93714205665
 10216.117978199865 176.94262434908609 -999947.79844988091
 10134.22327218759 31.253631667901423 -999948.64695237204
 10126.354087201895 -86.358611165149398 -999948.72343290248
 10175.965086569026 -178.73833324936714 -999948.20755235385
 10268.315885131948 -247.084691734963 -999947.24892768124
 10389.092755863358 -291.17886298461468 -999945.98952472408
 10523.20662894021 -309.4364269628129 -999944.58165007457
 10653.55973272431 -298.81221123544179 -999943.20457528171
 10759.593786670965 -254.55700978537837 -999942.08149386058
 10815.362124949394 -169.83825594872621 -999941.49783728516
 10786.828166674297 -35.217742317136171 -999941.81985644205
 10627.946923110139 162.00311430495015 -999943.50865395914
 10274.979844552288 438.58923260475865 -999947.11481591803
 9638.375398784854 816.35004540075875 -999953.21655179223
 8591.766284563284 1323.3412874715455 -999962.21444610017
 6958.7238388152791 1995.2083926910545 -999973.79730971216
 4501.810238751209 2875.90853161209 -999985.73132554872
 930.34322427142092 4014.2327903756618 -999991.51016225631
 -4019.8978410691489 5443.4667793457165 -999977.10428327776
 -10253.692473972111 7107.1152748532777 -999922.17232298595
 -16072.365482100375 8617.8878383377269 -999833.69170928409
 -0 0 -0
 44652.106721343705 9342.8009022706301 -998958.90878286201
 38653.83684766099 8086.6862813264734 -999219.93895335263
 31516.259010942384 6321.2641575300095 -999483.25000342343
 25444.706586955865 4845.5942864293138 -999664.48727696377
 20867.910925995737 3705.7388597137392 -999775.37366804958
 17556.948895188743 2833.800828157081 -999841.84905331803
 15193.969433560411 2164.2940691538065 -999882.22262626223
 13512.802330148346 1646.2282573887558 -999907.34276017349
 12317.585303676951 1241.4737333737876 -999923.36498116492
 11471.129717835986 921.69384849232404 -999933.77963915502
 10879.071254245328 665.88308052595255 -999940.5994399708
 10476.585103239311 458.60536364726215 -999945.01391111244
 10218.666045590287 288.71068843759468 -999947.74638997368
 10073.373512733437 148.34520731706905 -999949.25128217018
 10017.231712603007 32.173021206539147 -999949.82575812913
 10032.080040651868 -63.231685764714683 -999949.67541962443
 10102.888012440135 -139.82837587016596 -999948.95474810782
 10216.168940960682 -198.40957593223681 -999947.79390016652
 10358.756370764788 -238.76245484097964 -999946.31813859951
 10516.725767897937 -259.71605982730335 -999944.66398230824
 10674.2935634605 -259.07621837389416 -999942.99454340583
 10812.480543713182 -233.46122436040901 -999941.51616999507
 10907.320489684498 -178.02575212559307 -999940.49756301334
 10927.290562020593 -86.069906281818248 -999940.2916739299
 10829.568743078511 51.503536078499764 -999941.35717462178
 10554.570731794282 246.92814843397039 -999944.26847857726
 10018.174670078097 516.61364903874346 -999949.68337742763
 9101.1697893177479 882.61746093644865 -999958.19397356967
 7636.3952535609806 1374.6941200976121 -999969.89738871995
 5397.0331236470583 2032.8238835995967 -999983.3696919767
 2098.5194861342388 2909.1802484691871 -999993.5664224287
 -2547.1330546696731 4064.8614028873767 -999988.4944412997
 -8607.7921516582555 5538.4277872012608 -999947.61449383933
 -15248.292225768657 7152.5103309892065 -999858.15553015447
 -19989.514306188667 7817.8301398114954 -999769.62388827733
 43912.499060231356 6737.8040774975061 -999012.65979090519
 37431.797783602378 5852.1227443508287 -999282.04886011675
 30262.981777921894 4630.7604221085276 -999531.24412987812
 24410.299445687262 3571.2907834321613 -999695.64526565373
 20059.249153114179 2749.1877954369279 -999795.01323515247
 16932.137676919949 2124.1998006762165 -999854.38464253233
 14709.773840604403 1646.8510159561163 -999890.44921695779
 13134.229287747607 1277.8329413363101 -999912.92579103657
 12018.127975684769 988.41353048970279 -999927.29117603996
 11231.118670673166 757.92891946736722 -999936.64175144513
 10684.051565905233 571.52253836559817 -999942.76056388603
 10316.067850492489 418.53282385345744 -999946.7003667641
 10085.187873786428 291.37944956169292 -999949.10074641637
 9961.7860192276257 184.77858346878676 -999950.36310618045
 9924.1478009834773 95.165940380878666 -999950.74990414816
 9955.4639724599674 20.274032758838747 -999950.44293507701
 10041.758823249083 -41.174657728597346 -999949.57942107413
 10170.422359389968 -89.668189978552221 -999948.27589663235
 10329.078266537843 -125.02017239310226 -999946.64583272662
 10504.605409479684 -146.40051199252855 -999944.814393315
 10682.11607760986 -152.29669328416546 -999942.93297258811
 10843.717940138466 -140.39743429994749 -999941.1953059017
 10966.815425047855 -107.4015432687595 -999939.85690357466
 11021.672712751719 -48.726095099887637 -999939.25833341526
 10967.831930144004 41.908814080382882 -999939.85064422945
 10748.901782734923 173.08322463712182 -999942.21390671504
 10285.127323083752 356.5406166617264 -999947.0431151524
 9463.3011712641455 608.41327731044271 -999955.03687127156
 8124.2822402902648 950.81782981219374 -999966.54543216329
 6050.8858981519716 1413.4691523195015 -999980.69425604551
 2966.0824224401767 2033.5532688129849 -999993.53348717513
 -1428.6819014501775 2847.1742973919086 -999994.92622040072
 -7293.5519671453094 3848.6173077816206 -999965.99554410891
 -14172.880536209714 4854.5568387647709 -999887.77507038531
 -19844.235135145365 5333.4767616287527 -999788.85788827133
 43172.50608203889 4253.4668906586749 -999058.57823153003
 36496.34168175199 3797.4935940345808 -999326.57129001222
 29377.682812116174 3116.6900844054262 -999563.52374199231
 23690.811873602961 2475.3399364980737 -999716.2688107905
 19501.833000360424 1955.9289298021611 -999807.90797615086
 16503.755980291819 1554.1599013528667 -999862.59587282478
 14378.185577644685 1244.974127514779 -999895.85348620999
 12874.115275875805 1004.4413642956079 -999916.62065064651
 11810.817822017398 814.16570783543341 -999929.91840257251
 11063.103743448963 660.85501744483634 -999938.58361711761
 10545.628177202061 535.0713566687923 -999944.25015847327
 10200.3209313404 430.15168404303392 -999947.88285311463
 9987.2717688067623 341.43181290957847 -999950.06766684749
 9878.3997880903025 265.70152512324313 -999951.17211808206
 9853.1569508200846 200.82263764305952 -999951.43630496913
 9895.6176577928982 145.45321195298416 -999951.02659806982
 9992.4991841833053 98.857315928310172 -999950.06884708267
 10131.758453566155 60.776677941879207 -999948.67057106202
 10301.533394158132 31.362650009256978 -999946.93730523204
 10489.216155306347 11.153773964100749 -999944.98659678316
 10680.498558807898 1.1042955036166306 -999942.96184798237
 10858.188214404339 2.6552860672162173 -999941.0481331636
 11000.591908501226 17.863272257424818 -999939.49149864342
 11079.166030507045 49.590665246459835 -999938.62292684463
 11055.075381947254 101.79142146783666 -999938.88560591836
 10874.160010815294 179.91852398317963 -999940.85838782683
 10459.753477100605 291.50300834775294 -999945.25279296876
 9702.8210587539943 446.90119010796957 -999952.82665875193
 8449.4468863669154 660.06456087670563 -999964.08493609889
 6487.5681712081241 948.64738095673215 -999978.50553267903
 3540.5070677367703 1331.3333234001364 -999992.84615505405
 -709.30633898260146 1816.7645216340679 -999998.09812378662
 -6497.2857131132923 2372.8949867126012 -999976.07703771815
 -13539.939559256434 2872.5620140613914 -999904.20462372655
 -19630.758068171242 3101.4569629384969 -999802.48764562292
 42709.873701335622 2302.7903635853177 -999084.86318478349
 35965.993451119059 2118.7334409167897 -999350.76839099906
 28874.643778466845 1822.4524716255114 -999581.37918513443
 23273.855766179448 1524.3353383138078 -999727.96501825994
 19175.200836756441 1272.000498109516 -999815.32979225868
 16251.186508287679 1071.4247689338583 -999867.36669722246
 14181.394472795077 913.98828006823851 -999899.02123976045
 12718.210261895174 789.14320753939762 -999918.80889436847
 11684.790841139971 688.19739922511963 -999931.49367711099
 10959.085804912009 604.76507685333786 -999939.76453460567
 10458.061803721852 534.34007536666354 -999945.17020884354
 10125.323255967782 473.79551502105238 -999948.6253537091
 9922.174850962756 420.98825343075652 -999950.68539159361
 9821.4322539603345 374.47974198979318 -999951.69845018198
 9803.2101463960425 333.33756189641451 -999951.89182124939
 9852.0852025037329 296.99965721512666 -999951.42292431695
 9955.1593337856339 265.17788160494115 -999950.41101213126
 10100.707022659508 237.79924352713249 -999948.95828195242
 10277.145784185472 214.97123537546986 -999947.16563521419
 10472.152376300523 196.97609634214342 -999945.14610803768
 10671.734177097096 184.28381908440534 -999943.03844225442
 10859.090913630986 177.592952943509 -999941.02256346727
 11013.034682965003 177.8934108660219 -999939.33887061663
 11105.707606995908 186.56740464897493 -999938.31232289085
 11099.213482545985 205.53123509992685 -999938.38071002159
 10940.698547038692 237.44305486482736 -999940.12057527644
 10555.277385379177 285.9780279279131 -999944.25061394554
 9836.219593819349 356.15392966931961 -999951.5597960134
 8632.138463816058 454.543373375915 -999962.63909001264
 6732.426125208538 588.87594558860644 -999977.16357104341
 3856.9693488078033 765.72751529966354 -999992.26869452081
 -328.67519717912501 983.7704627207097 -999999.46208400116
 -6102.0312995520471 1220.1181954403528 -999980.63807536219
 -13235.523765104796 1416.3971895218976 -999911.40344015742
 -19483.970929917014 1500.2968508929609 -999809.04376093799
 42564.367753912971 658.76092840467345 -999093.50945331878
 35800.140597498219 665.20899419561613 -999358.74811310566
 28712.81994167743 663.4175605274537 -999587.4818384517
 23135.030254578593 655.49212253323651 -999732.13447662897
 19063.121031401068 644.10932517812046 -999818.07472145639