# OOMMF OVF 2.0
#
# Segment count: 1
#
# Begin: Segment
# Begin: Header
#
# Title: Oxs_TimeDriver::Magnetization
# Desc: Oxs vector field output
# Desc:  MIF source file: /mnt/gpfs/work/plgrid/groups/plggspinsym/MF/switching-obrazki/p-ap/Anisotropy.mif
# Desc:  Iteration: 48900, State id: 342450
# Desc:  Stage: 0, Stage iteration: 48900
# Desc:  Stage simulation time: 7.19834e-09 s
# Desc:  Total simulation time: 7.19834e-09 s
# meshunit: m
# meshtype: rectangular
# xbase: 1.0000000000000001e-09
# ybase: 1.0000000000000001e-09
# zbase: 3.4999999999999998e-10
# xnodes: 35
# ynodes: 35
# znodes: 5
# xstepsize: 2.0000000000000001e-09
# ystepsize: 2.0000000000000001e-09
# zstepsize: 6.9999999999999996e-10
# xmin: 0
# ymin: 0
# zmin: 0
# xmax: 7.0000000000000005e-08
# ymax: 7.0000000000000005e-08
# zmax: 3.4999999999999999e-09
# valuedim: 3
# valuelabels: Magnetization_x Magnetization_y Magnetization_z
# valueunits: A/m A/m A/m
#
# End: Header
#
# Begin: Data Text
 -0 0 -0
 0 0 -0
 -0 -0 0
 -0 0 0
 0 0 0
 -0 0 -0
 0 0 0
 0 -0 0
 -0 0 0
 0 0 0
 0 0 0
 -0 -0 0
 0 0 0
 20560.64425776427 34623.185843703475 -999188.91852829221
 18154.128826531734 34306.900003160757 -999246.44818919559
 15963.877460366681 33912.652563852447 -999297.29641008913
 14318.020336127332 33620.681190389136 -999332.09899910074
 12936.376708125375 33475.534012243261 -999355.81190097693
 11478.961226064463 33490.124205247834 -999373.12602945638
 9606.4095251701383 33671.767945788255 -999386.77644815773
 7061.1612744004133 33988.427456347024 -999397.2817656158
 4286.2396401159522 34256.72519986688 -999403.87478152604
 0 0 0
 -0 0 -0
 -0 0 -0
 -0 0 0
 0 -0 0
 -0 0 0
 -0 -0 0
 0 0 0
 0 -0 0
 0 -0 -0
 0 -0 0
 -0 -0 0
 0 0 -0
 -0 -0 -0
 -0 -0 -0
 -0 -0 -0
 -0 0 -0
 0 0 -0
 0 0 -0
 -0 -0 0
 0 0 0
 0 0 -0
 0 0 0
 25361.189107863756 32968.599508404455 -999134.56627898221
 23395.761552419262 31811.995140654948 -999220.0134637783
 21909.733901698757 30036.804913191703 -999308.63796474994
 20161.919757244479 29402.588271464021 -999364.29033393099
 17852.398313431811 28382.923596621644 -999437.69266651478
 15893.211626203565 27707.500123658516 -999489.71993768006
 14395.502876159586 27333.096260270497 -999522.72177563293
 13122.699904763273 27191.247221425092 -999544.11149371148
 11792.108467848255 27271.753060429255 -999558.50137092709
 10131.458729689481 27623.476329629375 -999567.05482897686
 7960.0454775435364 28351.242524281453 -999566.32832610188
 5565.9530892265157 29493.604146616726 -999549.47225270025
 4124.0075269671388 30151.956163845927 -999536.81878228521
 2405.1373925409739 31581.557619348499 -999498.28440696106
 -40.291177268163956 32443.071083354876 -999473.58420085406
 -0 0 -0
 0 -0 0
 -0 0 -0
 0 -0 -0
 -0 0 0
 -0 0 0
 -0 0 -0
 -0 0 0
 -0 0 -0
 -0 0 0
 0 -0 -0
 -0 0 -0
 -0 0 0
 -0 0 0
 -0 -0 0
 0 0 -0
 0 -0 -0
 -0 -0 0
 30142.390761510294 30732.107757707909 -999073.0573045942
 27694.320884984056 29253.770175589274 -999188.29132513015
 24951.697854564205 28103.877538040699 -999293.54287991941
 22401.649215131642 26179.13160194346 -999406.23331106454
 20501.86106463481 24220.133865980857 -999496.40259902901
 18784.557615469272 22666.192356802294 -999566.59814103204
 17035.504882283807 21451.010558407928 -999624.75245435396
 15531.497286741049 20693.829941144686 -999665.21295601723
 14318.98430822195 20296.03220467368 -999691.47128758067
 13259.59956096307 20170.388976065045 -999708.62676483754
 12166.829204941201 20298.687972109452 -999719.92654628458
 10867.176533965923 20731.976892121755 -999726.00726815336
 9269.286698010108 21575.30567131337 -999724.25523706258
 7499.1836596260846 22889.452435706709 -999709.87551970943
 5827.8553443507844 24435.220491636632 -999684.42825804302
 3752.3522851402149 26250.46900731045 -999648.35453734663
 925.87831116283451 28078.654471077502 -999605.28805746441
 -1904.3718814486865 29108.805012897643 -999574.43486638763
 -4774.2395137809417 30191.107455211648 -999532.74266913976
 -0 0 -0
 -0 -0 -0
 0 0 -0
 -0 0 0
 -0 0 -0
 0 0 -0
 0 -0 -0
 -0 -0 -0
 -0 -0 0
 0 0 0
 0 0 0
 0 0 -0
 -0 0 0
 0 0 0
 -0 -0 -0
 32749.640697791718 27287.130585970954 -999091.02365027275
 29560.11212393031 26317.713404426504 -999216.48191589746
 26077.84762235235 24066.449983008693 -999370.17758616398
 23132.641905686538 21876.9439678458 -999493.01158191741
 20754.817811879078 19834.406909362449 -999587.83197883586
 18951.695073160932 18083.556742614859 -999656.85023881576
 17482.074897146289 16692.26737383402 -999707.82995193684
 16187.856963195787 15663.732693733407 -999746.2681926043
 15089.498354966239 15005.134897510994 -999773.55084344104
 14173.539327012446 14654.866024614474 -999792.15124181996
 13355.690021459595 14555.854380860608 -999804.85728330701
 12522.602843428205 14693.83891971573 -999813.62038923404
 11569.265110693712 15101.044976397778 -999819.03889924951
 10434.367808410703 15838.162852466725 -999820.1221049201
 9124.6488764871774 16940.137440343035 -999814.86912647146
 7629.7782125523654 18355.081724234031 -999802.41921057762
 5703.0174805026072 20086.246954798742 -999781.98537225509
 3131.3483303494236 22115.777697072604 -999750.51239521126
 -35.208313085456801 24252.980485278178 -999705.85258762748
 -3850.5045297388115 26394.271409188324 -999644.19472712604
 -7218.19835469596 27316.394673867697 -999600.77640752844
 -0 -0 -0
 0 -0 0
 -0 0 -0
 -0 -0 -0
 0 -0 -0
 0 -0 -0
 0 0 -0
 0 -0 -0
 -0 0 -0
 0 0 -0
 -0 0 0
 -0 0 0
 -0 0 -0
 34261.256110143971 25274.326161469224 -999093.27630949381
 31241.457969100167 23612.615053768011 -999232.91364640684
 27328.934716878633 21056.415167021678 -999404.70116342476
 23875.678506794968 18540.267273212499 -999543.00080850872
 21187.468799470837 16408.640647548433 -999640.85934798163
 19152.674245186627 14649.353861155889 -999709.24348067748
 17629.525493169869 13238.614059995181 -999756.93992522825
 16448.043176758376 12150.307448328802 -999790.89408964245
 15485.502830274738 11360.329978800575 -999815.55404227751
 14691.271354328015 10846.676872586091 -999833.24416965421
 14023.950613430725 10571.121308234657 -999845.77820955892
 13423.268923883037 10500.835013385818 -999854.76361090492
 12817.361145279861 10626.459989535857 -999861.38719392603
 12137.812205523884 10964.904556056201 -999866.21324202151
 11331.589777170106 11548.661383419887 -999869.10317969753
 10357.421664706135 12404.078741907062 -999869.42279830901
 9143.5197874528039 13540.35273877436 -999866.51853815245
 7533.5213775157245 14988.86972538894 -999859.28001894825
 5352.4978630499281 16793.678262423393 -999844.64950163348
 2459.525941974332 18975.247622467181 -999816.92859733419
 -1250.779645505587 21545.674767152152 -999767.08259929542
 -5354.6205340672832 24138.87966047724 -999694.27452980506
 -8430.1742171361457 25716.631801347565 -999633.72642756626
 0 -0 -0
 -0 0 -0
 0 0 0
 0 0 -0
 0 -0 0
 -0 0 0
 -0 0 0
 0 -0 0
 -0 -0 -0
 -0 -0 -0
 0 0 0
 35384.919633204467 24228.337532719841 -999080.02438390895
 32431.789507425958 22144.535130493918 -999228.60176898469
 28466.024504952391 19157.58483391986 -999411.16283150192
 24745.598550304083 16356.849073627885 -999559.95760172885
 21744.845071559841 14049.908854064108 -999664.82471576764
 19481.855554789112 12235.189146596615 -999735.34370386717
 17812.720121309449 10821.449079250669 -999782.77802816033
 16584.447243767143 9732.4457760792629 -999815.10071054369
 15661.86102228518 8914.1037497412854 -999837.60924645036
 14945.426606181571 8328.8994122149143 -999853.62111568148
 14372.974256280928 7948.3914368049382 -999865.11124480958
 13897.455018880793 7745.78749248845 -999873.42374928587
 13471.428195710323 7701.2164124743558 -999879.59869583114
 13044.912600073045 7808.479796834722 -999884.42227015365
 12568.708835509293 8076.3887193353903 -999888.39352372824
 11995.906881382843 8524.285935834876 -999891.71152049117
 11275.020133303366 9175.1778540412979 -999894.3394340924
 10330.879790998844 10055.732468703953 -999896.07218313543
 9047.2262504046976 11210.016393565875 -999896.23623135511
 7279.3613622915964 12703.516779276593 -999892.81003495352
 4870.9549608590505 14619.811659439791 -999881.26040285977
 1689.6271059678263 17049.97541234114 -999853.21097583184
 -2196.5204485818676 19961.700622502907 -999798.33256821171
 -6258.9498677191541 22953.0103765229 -999716.95237262454
 -9220.112427866663 24857.684546405504 -999648.48074000957
 0 -0 0
 0 0 0
 0 -0 -0
 0 -0 0
 0 -0 -0
 -0 -0 0
 0 -0 -0
 0 -0 0
 0 0 -0
 36650.976259488343 23512.442515339473 -999051.48565336154
 33563.878746394672 21306.127437497991 -999209.44499995315
 29480.795347671396 18111.781195365962 -999401.24378930009
 25610.486425660536 15080.572736042646 -999558.24208046729
 22401.939047075859 12595.441037062237 -999669.69944677886
 19925.407102305762 10671.446355452663 -999744.51655635005
 18089.127183295641 9213.1320033420088 -999793.92960571416
 16752.619262913024 8113.5175157046251 -999826.74528207851
 15783.708616021537 7289.8370874766388 -999848.85498637357
 15074.025449737601 6684.6250025807631 -999864.03552948916
 14542.638895519309 6258.9421165554868 -999874.66079380969
 14132.530191306158 5985.4568497046284 -999882.2160118121
 13800.27357290795 5843.7100767757947 -999887.69544476911
 13507.276877894503 5820.3415605114496 -999891.83269764856
 13215.919179861092 5910.9724374758271 -999895.19445043569
 12888.355937750308 6120.6922147213936 -999898.20852326474
 12484.556763650571 6462.7087490443009 -999901.17973629781
 11956.7364884074 6957.009323750467 -999904.31365897018
 11239.863900552227 7632.4567481664953 -999907.70127221453
 10243.470051999406 8533.544004479776 -999911.12102427264
 8851.8493990067818 9725.9726315686203 -999913.52137001685
 6929.6165136278169 11299.310006357136 -999912.14914529072
 4341.4446095520007 13359.567981489823 -999901.33203334128
 1014.0421806645986 15978.924437824789 -999871.81463038852
 -2956.7647453562108 19081.167055364189 -999813.56592419068
 -7093.6790768166429 22195.458675889327 -999728.4838051392
 -10178.536912514144 24117.662593738656 -999657.30915015819
 0 -0 0
 0 -0 0
 0 0 -0
 0 0 -0
 0 0 -0
 0 -0 0
 -0 0 -0
 38634.57308476451 22544.087060443358 -998999.06601616461
 35116.168861958569 20550.512834302241 -999171.92269734328
 30696.966682550657 17415.673355142968 -999377.00121529598
 26570.00766013718 14333.130261572618 -999544.19415543845
 23146.577734157639 11749.214473922724 -999663.03917792335
 20473.298403111268 9731.8396313475678 -999743.03465935029
 18464.894833603481 8209.1057184098518 -999795.80827391334
 16995.096637159051 7076.5717011272309 -999830.53005159448
 15936.738124620057 6239.2684675055089 -999853.53522750398
 15180.378997339065 5624.8392425485363 -999868.95005145168
 14639.098650106132 5182.4027971038622 -999879.41247530479
 14247.369303298699 4877.2572968259474 -999886.60598549654
 13956.865051672623 4685.7128318180039 -999891.61913338746
 13730.335356624999 4591.5988284473879 -999895.19206324499
 13536.109487469632 4585.1290104368818 -999897.86995067692
 13344.488306146071 4663.0104096246523 -999900.08549142885
 13125.342057382608 4828.5584065800676 -999902.20042741729
 12845.428592801976 5091.5625982926322 -999904.53092011472
 12464.27107276973 5468.6842555932944 -999907.36342880153
 11928.613271625896 5985.5941417872418 -999910.93645793549
 11167.238085632753 6681.0862927787211 -999915.32435476105
 10088.228410651987 7611.4228524842456 -999920.14375633781
 8579.0058019724675 8853.1101738471607 -999924.00866250833
 6512.4104155503519 10499.483039378802 -999923.67177024344
 3765.9710857292803 12639.995493406741 -999913.02020511171
 261.03059824247924 15309.902584874302 -999882.7625006187
 -3943.1921862203376 18378.570761036215 -999823.32407889131
 -8412.548858679218 21319.814035009764 -999737.3127733171
 -11944.758786086475 22902.747500518322 -999666.33778199682
 0 0 0
 0 0 0
 -0 0 0
 0 -0 0
 -0 0 -0
 41870.420355141032 20446.665438577966 -998913.81098257261
 37664.985358274491 19322.639612526862 -999103.5904631539
 32559.953172872003 16646.419633432091 -999331.14940082212
 27913.722657845916 13751.330721682607 -999515.74524404749
 24120.618713807486 11211.534135185331 -999646.18603543856
 21177.815544493918 9173.3596143376526 -999733.63932707044
 18963.280423522785 7611.8671229079373 -999791.20493955235
 17334.123257180061 6445.8862154333783 -999828.97473608074
 16157.54675049718 5587.4135247635613 -999853.84656614112
 15320.443307279467 4960.9554346510004 -999870.32806161605
 14731.706917374118 4508.8153260784875 -999881.31665495969
 14320.748431837226 4189.6626110852612 -999888.67524917866
 14034.261767715827 3974.8906310429643 -999893.61421158526
 13832.172470116691 3845.0497049454293 -999896.93798787263
 13683.308393038073 3787.2978436766693 -999899.20664358151
 13561.544432250877 3794.1198198479192 -999900.83966731653
 13442.816757599492 3862.9209690197254 -999902.17947517685
 13302.694550424461 3996.0019592935214 -999903.53048983659
 13113.876990611938 4200.7849050473542 -999905.18532331672
 12843.068353441222 4490.5739839678154 -999907.44088668691
 12447.189911100528 4886.2619795191158 -999910.59195669321
 11869.409561895456 5418.9960343216708 -999914.87217594264
 11035.566373218562 6133.1118115289783 -999920.29743091506
 9851.1799396063998 7088.1464231093978 -999926.35350513796
 8199.8757431106114 8357.4592339266455 -999931.45510727412
 5945.0925511973664 10018.856978145735 -999932.13688700355
 2939.2207908898345 12130.454246087469 -999922.10349653068
 -942.60480293301066 14676.210896666378 -999891.85431720666
 -5694.3767528035933 17446.015494456253 -999831.5911276082
 -10886.308199594549 19790.562078976498 -999744.87842968293
 -15115.082002409528 20373.394819075558 -999678.17775502452
 0 0 0
 -0 -0 -0
 0 -0 -0
 0 0 -0
 40461.089701921388 17510.446570009874 -999027.66952725162
 35397.974295553839 15599.493686149985 -999251.53950970108
 30013.835693332701 13109.017607247339 -999463.51775557396
 25587.216607837316 10759.183352323549 -999614.69292915775
 22193.707594161046 8793.9044712785453 -999715.01268480229
 19666.031195260082 7247.0269412452653 -999780.33978346467
 17815.3497683614 6072.1126444653446 -999822.85569027846
 16479.552577219845 5199.6524002776414 -999850.68283307727
 15528.956200068869 4561.634519205888 -999869.01292611787
 14862.509649793654 4100.9887432993009 -999881.13678488648
 14402.766349398942 3773.7777609992982 -999889.15331795427
 14091.136487105045 3547.9708800010667 -999894.42031403317
 13883.600443838644 3401.0278153299414 -999897.83410532249
 13746.854385352573 3317.5148891002941 -999900.00404513872
 13654.854742872134 3287.3057250546094 -999901.36441702163
 13585.873748557828 3304.5146143734487 -999902.24733103369
 13520.061951664242 3367.026680513869 -999902.93081686471
 13437.329972887354 3476.4318916528996 -999903.67165267596
 13315.198109307094 3638.2925355906527 -999904.72962514532
 13126.327547368706 3862.8349261462436 -999906.38463380793
 12835.575612204546 4166.188010973915 -999908.94129223621
 12396.594096028542 4572.1309750969394 -999912.70622648112
 11747.925893535665 5114.0065641750898 -999917.9132179108
 10808.404299491558 5836.1197626356025 -999924.55620542436
 9471.6563125774046 6793.3435098008895 -999932.0667978673
 7599.9214997743138 8046.7489489727595 -999938.74363610358
 5019.2668969768856 9651.6154360029941 -999940.82488879946
 1526.3539819894982 11630.126827856988 -999931.20283021964
 -3056.4394956259803 13912.312869696494 -999898.5477178297
 -8640.1252207983089 16214.221871942214 -999831.20937749115
 -13886.687046458745 17838.137183855586 -999744.44773886283
 -0 0 -0
 -0 -0 -0
 0 0 -0
 44387.514757746474 15564.388036316237 -998893.13660605636
 39459.215675709253 14610.749560867294 -999114.35596508533
 33265.795678735718 12470.251905705312 -999368.74058340874
 27887.439390218202 10323.709981550395 -999557.75807927875
 23762.444196215234 8477.7069240165838 -999681.68670388893
 20727.15684017583 6990.2777610466237 -999760.73186845379
 18531.645359354236 5838.2478267686465 -999811.22867398744
 16959.901702427251 4970.0745431576352 -999843.81785020768
 15845.805848525393 4329.0660819097366 -999865.07570965274
 15065.725399980744 3863.7582400996976 -999879.04032959638
 14528.323908953251 3531.7872974347388 -999888.22089415684
 14166.144614514264 3300.4207251798821 -999894.20818894519
 13929.268800540383 3145.4750922339499 -999898.03553018684
 13780.546443768426 3049.6714091471435 -999900.3930612324
 13691.887011108813 3001.039614895763 -999901.75816992379
 13641.296352393952 2991.6759347968605 -999902.47769916395
 13610.457220346339 3016.9434419441804 -999902.82203148189
 13582.719896388739 3075.07693825469 -999903.02210866439
 13541.297117671898 3167.1125665933691 -999903.29665941256
 13467.452090722632 3297.1070106819784 -999903.87378964771
 13338.440270667192 3472.6642440508713 -999905.00879543228
 13125.028990435509 3705.8011992643137 -999906.99600086396
 12788.387284103932 4014.1098934254483 -999910.16800132359
 12276.07599268659 4422.0451281968308 -999914.86811383395
 11516.664910149033 4961.9900150256535 -999921.36945083749
 10412.396544051731 5674.5020252108716 -999929.68854063703
 8829.4357394571562 6606.7718902387533 -999939.19396616949
 6586.6092457486311 7807.7159764783846 -999947.82671391137
 3449.1164778757502 9316.7292388886272 -999950.6498581873
 -846.59083281217738 11140.063467376607 -999937.58918739751
 -6440.8808499404195 13197.440135874001 -999892.16549972876
 -12765.025262117773 15141.830875353598 -999803.87031047209
 -17579.371250089833 15699.524631480266 -999722.20673184854
 -0 -0 0
 0 0 -0
 43183.876254620911 13119.576668376334 -998980.99558483507
 37530.60829973947 11809.666291476755 -999225.69283557532
 31261.85780201502 9938.4448512854269 -999461.8169598598
 26153.455885140527 8204.9005587201391 -999624.26758862019
 22356.810760986282 6782.5425387639189 -999727.04781320528
 19627.837167949539 5669.3191442630878 -999791.28163259628
 17693.214408203461 4821.7017231807831 -999831.83653872437
 16332.852038599831 4189.7986403068744 -999857.83165990096
 15384.449540374018 3727.4835535522866 -999874.70443986042
 14731.395395218495 3395.6475843905191 -999885.72125378007
 14290.199248066734 3162.897389325904 -999892.88740622345
 14000.7649657048 3005.0614496487178 -999897.46883670974
 13819.436907445619 2904.1454807641176 -999900.28958020988
 13714.06847904455 2847.1342135110131 -999901.90426487464
 13660.462665262898 2824.8957154518703 -999902.70112844871
 13639.699237791501 2831.3238695065197 -999902.96639716427
 13636.057584504892 2862.767192085802 -999902.92653714935
 13635.297346821075 2917.729118920699 -999902.7780354711
 13623.120523288699 2996.8087815652602 -999902.71012950782
 13583.605757543253 3102.8595165787647 -999902.92424687126
 13497.434481429958 3241.3673676611475 -999903.65175851178
 13339.677958046237 3421.0511607141971 -999905.17020412034
 13076.893109622388 3654.6642978901887 -999907.81489868811
 12663.126809878235 3959.9238510658574 -999911.97823732987
 12034.284973152908 4360.4339141548198 -999918.07794502098
 11100.132900621238 4886.3873350847643 -999926.45242957748
 9733.3024029434036 5574.7238548441801 -999937.09066034516
 7755.7469717714484 6468.1534148045757 -999949.00438987999
 4927.6330114647435 7611.4800273037035 -999958.89105737652
 959.11972513256899 9039.6363798537277 -999958.6816781346
 -4385.2321054053 10734.787618573971 -999932.76477679529
 -10881.594015920207 12474.073901355818 -999862.98480940668
 -16639.858962184087 13528.148713917602 -999770.02569895657
 0 0 0
 -0 -0 0
 41580.973147286561 11205.687576291117 -999072.29730288649
 35689.75700083463 9657.2688482389804 -999316.25544850109
 29591.039955443764 8004.0040721737987 -999530.04270665522
 24791.509912222431 6615.4936430877606 -999670.75393858051
 21293.127114974202 5530.0162178503861 -999757.98154268088
 18815.627020364191 4705.9098474113662 -999811.89560453757
 17083.456655762249 4091.3125862997986 -999845.69643020991
 15882.172973992141 3640.3292493259387 -999867.24348014372
 15056.600436159562 3315.3414756689899 -999881.14658403548
 14497.146271376356 3086.4144800527883 -999890.14736402105
 14126.701536914125 2930.2411547432025 -999895.91957886389
 13890.677803556566 2829.0599629024687 -999899.5176965954
 13749.958459176571 2769.6225584731956 -999901.62907820812
 13676.019890251475 2742.2620885731512 -999902.7185074552
 13647.510151791326 2740.1109595590028 -999903.11393583822
 13647.790344808904 2758.5045017847401 -999903.05953708221
 13663.069580979114 2794.5791218808781 -999902.75069986528
 13680.901822616315 2847.0575992649688 -999902.35882727394
 13688.829419899155 2916.2026788031153 -999902.05105852685
 13673.010651107494 3003.9293112142609 -999902.00779297762
 13616.626319758678 3114.0705242709655 -999902.44026726834
 13497.862030949555 3252.8009417441249 -999903.60885768721
 13287.158462651219 3429.2130052058619 -999905.8415261677
 12943.335826432509 3656.0373669034461 -999909.54763341288
 12408.005542322446 3950.490316072945 -999915.21391802223
 11597.564885313142 4335.2441672413979 -999923.3481356164
 10392.104845424195 4839.5229039543119 -999934.28942853236
 8621.4651797224542 5500.2501295213324 -999947.7074260771
 6052.1113754480593 6362.5752538854576 -999961.44404873834
 2389.8431349098605 7476.4490359628644 -999969.19520533388
 -2650.4774953363694 8876.547699062301 -999957.09001436317
 -9028.2986561632042 10506.97051450234 -999904.04209303122
 -15122.879114277304 11982.58097020571 -999813.84081267216
 -0 0 -0
 46733.559384543791 10767.901399362931 -998849.35136721458
 41217.614393222524 9641.2121692899254 -999103.67594741564
 34303.989297148633 7929.305118668939 -999379.98901250598
 28299.945316952213 6491.8700192773631 -999578.39548417123
 23762.39595666129 5400.2900686477606 -999703.04861272336
 20509.07441616464 4590.2252357778016 -999779.12945754023
 18229.726078601805 3995.1955223759869 -999825.84258451592
 16651.611769774321 3562.3871913841149 -999855.00609986845
 15568.43738814324 3251.8422540449842 -999873.51664060319
 14832.684377358984 3033.4942453844496 -999885.38812547154
 14341.090558054748 2884.6389251253745 -999893.00026546698
 14021.681242675952 2788.1208184948714 -999897.80419672397
 13823.998459693554 2731.0409187994524 -999900.71431221906
 13712.220400972408 2703.7946288857197 -999902.32748317975
 13660.417154478491 2699.3289567443444 -999903.04861338879
 13649.284641308663 2712.5725094226959 -999903.16480105277
 13663.830650315456 2740.0165892674945 -999902.89130547585
 13691.67086194749 2779.4375517554759 -999902.40167523571
 13721.660289146928 2829.7465881031394 -999901.84946981492
 13742.680303398552 2890.9582128509246 -999901.38568695378
 13742.388327881594 2964.2680653693938 -999901.17505575635
 13705.766565208094 3052.2414440029565 -999901.4130328187
 13613.234156626662 3159.1148157068201 -999902.34515645471
 13438.049812693085 3291.2233751484314 -999904.28875264165
 13142.585877561125 3457.5722048768089 -999907.6545516086
 12672.94221082832 3670.5947301469623 -999912.95784685574
 11951.208831709519 3947.1767357973372 -999920.79106461082
 10864.765080389689 4310.0870516153527 -999931.68768139125
 9252.670260989069 4789.9871973968175 -999945.72058471781
 6891.8562051605386 5428.0546870661001 -999961.51852976903
 3494.0308541358413 6278.4488994873063 -999974.18608072423
 -1250.7634075427759 7406.7213974018432 -999971.78763655107
 -7470.0032261944816 8864.4992293905034 -999932.80759519653
 -14430.764985752283 10515.873962726053 -999840.57199971948
 -19650.819862214277 11318.057225969022 -999742.84036414698
 46213.240681366951 8143.0404995419831 -998898.40688487899
 40094.933172501092 7363.3042888209575 -999168.7435482773
 33100.386881112521 6205.0862379248501 -999432.76977148408
 27314.954186461415 5191.0598500570068 -999613.39835729729
 23013.571130527918 4420.2050591205489 -999725.38095771859
 19955.086287134327 3858.1208406700516 -999793.43338254222
 17825.875281650584 3454.9506514214595 -999835.13715334074
 16361.127969325651 3169.5749968696773 -999861.12399968377
 15363.074988844899 2971.3494157781997 -999877.56600972742
 14691.092867706573 2837.8586065046848 -999888.05290836538
 14247.164654578452 2752.639257784876 -999894.71509575529
 13963.286146418563 2703.5043445028127 -999898.85373684287
 13792.04150981485 2681.391242895726 -999901.28999416449
 13699.952499590852 2679.5632481028847 -999902.56087396259
 13662.911650934895 2693.0422565561639 -999903.03148286487
 13663.041272966952 2718.1992765726295 -999902.96163971128
 13686.50524872077 2752.4671255499402 -999902.54700085626
 13721.902625042714 2794.1526507425037 -999901.94624238682
 13759.006735962927 2842.338019817088 -999901.30055332009
 13787.636080938484 2896.8602946234196 -999900.74972055759
 13796.50446820841 2958.3675551855713 -999900.44730756409
 13771.856020384981 3028.4496503959704 -999900.5772947974
 13695.690753830988 3109.8530124996341 -999901.37357092183
 13543.282420681007 3206.7920123593603 -999903.14330252167
 13279.619839422603 3325.3885116067709 -999906.29235352227
 12854.238110007838 3474.2884457460127 -999911.34501134988
 12193.819874532672 3665.5428761968833 -999918.93399029621
 11191.949605839158 3915.8676769221424 -999929.7006511793
 9695.9984198276125 4248.3787957076411 -999943.96787632594
 7493.2442064499337 4694.6302833798009 -999960.90510467708
 4304.9946599108343 5295.6346028361386 -999976.71136638545
 -183.31344342251154 6096.0399064793864 -999981.40217388037
 -6174.9725388040533 7108.4332816573751 -999955.66896259203
 -13290.386832669634 8175.9359073583482 -999878.25243370351
 -19359.646058960618 8740.4181804823311 -999774.3791448659
 45680.571849529981 5616.6849121601526 -998940.30762908829
 39293.08328643495 5247.5083323902991 -999213.94969353138
 32294.591242374408 4640.6694364986579 -999467.62006763823
 26659.446037155638 4058.6775338555772 -999636.33441050351
 22522.060803085464 3597.7998732412657 -999739.87247346214
 19599.452037081173 3260.8035631034163 -999802.59483558522
 17574.171585277574 3024.2136020853304 -999840.98867028847
 16186.922289782728 2863.4064721843288 -999864.88309679122
 15246.247499776116 2758.6354606383866 -999879.9637294322
 14616.667929529671 2695.186416663661 -999889.53839352529
 14204.010650288552 2662.2747221770014 -999895.5737349526
 13943.104154729443 2651.9722264701063 -999899.27337199321
 13788.631274003457 2658.4051191268286 -999901.39840376878
 13708.696768296051 2677.1945863786364 -999902.4473727732
 13680.398309202565 2705.0687658026732 -999902.75992472051
 13686.800966794412 2739.5944646365929 -999902.57830523886
 13714.824724515052 2778.9937257131896 -999902.08559470868
 13753.719742827823 2822.0287465526476 -999901.43081555259
 13793.861635847061 2867.9419482935673 -999900.74721951899
 13825.693082732043 2916.4476106022576 -999900.16728877323
 13838.626208404368 2967.7698994190846 -999899.83736696758
 13819.751957343608 3022.7313323298113 -999899.93376893958
 13752.132658620501 3082.895110533063 -999900.6823705429
 13612.423488958137 3150.7775997388239 -999902.38249904872
 13367.435081639782 3230.1520892892709 -999905.43442708522
 12969.155566740266 3326.4849530688562 -999910.3637335411
 12347.596946714215 3447.5514534913764 -999917.82224271656
 11400.850892884917 3604.2690712977569 -999928.51236644923
 9982.1200856581781 3811.6598612152488 -999942.91263436514
 7885.179981125907 4089.4072622624085 -999960.5495642859
 4834.8940537975968 4460.0837717812783 -999978.36549209268
 504.5202716199837 4939.4258177473303 -999987.67368997424
 -5374.044339031534 5505.5923407198734 -999970.40361223696
 -12596.009248872504 6034.8555571233801 -999902.45577726583
 -19062.81508333941 6281.0185782179205 -999798.55865405127
 45380.224013269464 3653.5105092312683 -998963.10599013837
 38889.330535606583 3538.4770135370586 -999237.25868830422
 31881.933336540525 3311.2746218727279 -999486.15687617357
 26315.769970788755 3074.764812460643 -999648.951418543
 22265.545958025064 2882.615323135115 -999747.93622797227
 19419.883313156148 2745.660144829108 -999807.64624125184
 17454.824134744216 2656.9511759000497 -999844.12271357269
 16112.573365934146 2605.7510871666896 -999866.78864776739
 15204.921118808896 2582.4722375696265 -999881.06353251485
 14599.365431436559 2579.6729900963583 -999890.09586867294
 14204.040941470928 2591.8159626442871 -999895.75842232129
 13955.472999313914 2614.7996583643458 -999899.19871760672
 13809.590575213846 2645.5555288156115 -999901.14323571441
 13735.417087331145 2681.7539217855674 -999902.06846137682
 13710.745897360557 2721.6018589004079 -999902.29939242534
 13719.175180357406 2763.7052076949799 -999902.06828763778
 13748.057357420401 2806.9790169370749 -999901.55104774947
 13787.008889797962 2850.5923729120213 -999900.89134323527
 13826.753438540743 2893.9438536699622 -999900.21801093826
 13858.090750701889 2936.6614736542147 -999899.65963597293
 13870.844759228397 2978.6286097408133 -999899.35865429498
 13852.603882255808 3020.033938124956 -999899.48732894845
 13787.069525855091 3061.4521147800638 -999900.26713909756
 13651.730046384682 3103.9601433966054 -999901.99304640293
 13414.514279936813 3149.3060929400731 -999905.06183225533
 13028.917940374584 3200.1464112835902 -999909.99913004634
 12426.991446512429 3260.3725348617759 -999917.4665213736
 11509.48483891718 3335.5098248695044 -999928.20048889052
 10132.725269090368 3433.0545011480949 -999942.76937003422
 8093.0391411410765 3562.2500140176967 -999960.90578196978
 5113.8715884328876 3731.9468182367709 -999979.96024436527
 854.59228512432844 3943.6238780188028 -999991.85871822736
 -4993.5488645472378 4175.8265676054471 -999978.8132466682
 -12290.291722944168 4364.5692206876593 -999914.94601535122
 -18918.627136236424 4421.0966742443734 -999811.25191281829
 45347.075204313893 2029.9102391455474 -998969.2298738911
 38820.49748926246 2084.9241625445966 -999244.02528407576
 31799.597070602045 2134.771274118264 -999491.98514933314
 26247.166339494332 2178.7462020430512 -999653.1094955561
 22221.793044505572 2221.8716503001501 -999750.5964990753
 19400.682968321431 2267.0711790720457 -999809.21874557238