# OOMMF OVF 2.0
#
# Segment count: 1
#
# Begin: Segment
# Begin: Header
#
# Title: Oxs_TimeDriver::Magnetization
# Desc: Oxs vector field output
# Desc:  MIF source file: /mnt/gpfs/work/plgrid/groups/plggspinsym/MF/switching-obrazki/p-ap/Anisotropy.mif
# Desc:  Iteration: 30300, State id: 212250
# Desc:  Stage: 0, Stage iteration: 30300
# Desc:  Stage simulation time: 4.46139e-09 s
# Desc:  Total simulation time: 4.46139e-09 s
# meshunit: m
# meshtype: rectangular
# xbase: 1.0000000000000001e-09
# ybase: 1.0000000000000001e-09
# zbase: 3.4999999999999998e-10
# xnodes: 35
# ynodes: 35
# znodes: 5
# xstepsize: 2.0000000000000001e-09
# ystepsize: 2.0000000000000001e-09
# zstepsize: 6.9999999999999996e-10
# xmin: 0
# ymin: 0
# zmin: 0
# xmax: 7.0000000000000005e-08
# ymax: 7.0000000000000005e-08
# zmax: 3.4999999999999999e-09
# valuedim: 3
# valuelabels: Magnetization_x Magnetization_y Magnetization_z
# valueunits: A/m A/m A/m
#
# End: Header
#
# Begin: Data Text
 -0 0 -0
 0 0 -0
 -0 -0 0
 -0 0 0
 0 0 0
 -0 0 -0
 0 0 0
 0 -0 0
 -0 0 0
 0 0 0
 0 0 0
 -0 -0 0
 0 0 0
 21022.148166791081 33223.000362780163 -999226.85188767232
 19141.547952990153 33323.428741293006 -999261.30228228471
 17582.704324268183 33329.616939651198 -999289.74033725623
 16629.67268655455 33360.319584181787 -999305.03004016716
 15984.951025906059 33461.965118376313 -999312.15254849975
 15286.518685899358 33643.171878999296 -999316.99641924724
 14161.925978783012 33890.990603405859 -999325.19262174668
 12283.350388656279 34145.123786844502 -999341.39803413057
 9906.0927958026186 34240.533745541739 -999364.5256733608
 0 0 0
 -0 0 -0
 -0 0 -0
 -0 0 0
 0 -0 0
 -0 0 0
 -0 -0 0
 0 0 0
 0 -0 0
 0 -0 -0
 0 -0 0
 -0 -0 0
 0 0 -0
 -0 -0 -0
 -0 -0 -0
 -0 -0 -0
 -0 0 -0
 0 0 -0
 0 0 -0
 -0 -0 0
 0 0 0
 0 0 -0
 0 0 0
 23653.02887858465 32144.397839788562 -999203.31860557105
 22319.991481188215 31477.359341154512 -999255.21956564602
 21684.922991856751 30076.026884996725 -999312.36193777272
 20734.710808222364 29334.652454990461 -999354.56667443318
 19037.140849689778 28521.282908446097 -999411.88890743419
 17691.735952413783 28125.035332518859 -999447.83999293053
 16864.392439636107 28014.794407394813 -999465.2387962041
 16305.132345925233 28091.503707519572 -999472.36584041279
 15698.625761165731 28327.739530259099 -999475.40856307046
 14725.977238300662 28756.29572032834 -999477.97426997952
 13134.595551980239 29482.945527311829 -999478.98343222775
 11131.200262909484 30645.809596266947 -999468.32402777846
 10059.816155586526 31730.723468246979 -999445.82708974148
 8927.4148697310829 33286.858210645791 -999405.96672934073
 6907.4801806365185 34055.72793992066 -999396.06468708708
 -0 0 -0
 0 -0 0
 -0 0 -0
 0 -0 -0
 -0 0 0
 -0 0 0
 -0 0 -0
 -0 0 0
 -0 0 -0
 -0 0 0
 0 -0 -0
 -0 0 -0
 -0 0 0
 -0 0 0
 -0 -0 0
 0 0 -0
 0 -0 -0
 -0 -0 0
 27156.819725855119 30466.349154244021 -999166.80725071579
 25412.051728970469 29447.341293117315 -999243.25452698988
 23420.509314430241 28413.183491816413 -999321.85543363029
 21563.060448056713 26794.90894859282 -999408.35861951346
 20431.779281582239 25063.563454732615 -999477.04334934056
 19464.265591767111 23549.33662541816 -999533.1765926911
 18366.757711566337 22424.528166914519 -999579.81309531035
 17496.985166953862 21827.384736551572 -999608.63380906708
 16949.975150769969 21617.290587700754 -999622.6243388229
 16581.71090236276 21671.291506616599 -999627.6316649043
 16174.519316295055 21950.389457120495 -999628.21355120221
 15510.920745166701 22499.37494474545 -999626.52499057539
 14451.69549938709 23444.100477793247 -999620.68938671926
 13111.207691391073 24915.469758925981 -999603.5792250674
 11867.849960454541 26740.079300429574 -999571.9695431256
 10280.356613068061 28713.713742116644 -999534.81025477254
 7822.7463710303873 30567.513854647226 -999502.09191174817
 5266.8198201381156 31800.188102982003 -999480.36931477394
 2684.9592849268042 32836.202179608583 -999457.14006157266
 -0 0 -0
 -0 -0 -0
 0 0 -0
 -0 0 0
 -0 0 -0
 0 0 -0
 0 -0 -0
 -0 -0 -0
 -0 -0 0
 0 0 0
 0 0 0
 0 0 -0
 -0 0 0
 0 0 0
 -0 -0 -0
 29566.095528864564 27788.070428261657 -999176.49548868591
 26899.212837567757 27004.100178185163 -999273.34144481493
 24069.269099886907 25078.243168417051 -999395.69340906339
 21802.497588898485 23062.849995120112 -999496.25114303885
 20088.012134249559 21172.17503770013 -999574.01465457631
 18982.813560922295 19532.316358414326 -999629.00188369211
 18218.945418532021 18187.809974128937 -999668.58187910519
 17601.428025614463 17217.054748231887 -999696.8354242479
 17170.669664111781 16660.163964778898 -999713.76255403855
 16933.600352587866 16445.475062150195 -999721.36094467773
 16800.718481894462 16495.04925384411 -999722.78618055198
 16634.544944789766 16780.388637626947 -999720.81626404577
 16297.827657920732 17332.484640163129 -999716.94283423596
 15702.332946092363 18228.079915802689 -999710.54502922657
 14855.981600579815 19529.415646299876 -999698.90553866141
 13787.806703975079 21179.936088985472 -999680.60233934736
 12257.053577874804 23094.221344841117 -999658.15235912753
 9995.4125629277751 25239.236267849094 -999631.46843239805
 7076.3477320212069 27470.062855385226 -999597.57950362028
 3427.0350306275259 29556.027505522994 -999557.25032085669
 -23.499111376255041 30439.324745221074 -999536.61611611128
 -0 -0 -0
 0 -0 0
 -0 0 -0
 -0 -0 -0
 0 -0 -0
 0 -0 -0
 0 0 -0
 0 -0 -0
 -0 0 -0
 0 0 -0
 -0 0 0
 -0 0 0
 -0 0 -0
 30846.286965173975 26514.364759511591 -999172.40506424196
 28337.89026007834 24980.127575023285 -999286.22386278457
 24970.193946520238 22613.970355805828 -999432.3877876983
 22075.458680921194 20265.760397514146 -999550.8856879361
 19981.286562055837 18237.826333958605 -999633.99796022195
 18572.157033549847 16553.224313940987 -999690.48497419117
 17712.869513475824 15198.387013459966 -999727.59454052662
 17219.417373269684 14149.396462536435 -999751.61227430438
 16949.369149282276 13408.575623552633 -999766.43721680762
 16849.604395418712 12972.392202743895 -999773.87837063242
 16879.581744611536 12802.821411349742 -999775.5585550369
 16969.940725646371 12858.367254240102 -999773.31605885702
 17029.490771191795 13122.517423380414 -999768.87128003081
 16966.38035560077 13611.835108447714 -999763.4019519866
 16709.000766384295 14365.497585247827 -999757.19140825234
 16211.359058000422 15415.447866147362 -999749.74658890429
 15408.035729911233 16757.521862737274 -999740.85537001316
 14136.897622028886 18385.72072335122 -999731.02052457456
 12204.824026545934 20324.477014878397 -999718.93945476133
 9470.4271062743683 22581.986310830333 -999700.13749357988
 5804.5097091693442 25129.695555974093 -999667.34770537552
 1576.7444154902914 27647.80637310509 -999616.48279717914
 -1777.0499810381284 29194.007017043299 -999572.18451078038
 0 -0 -0
 -0 0 -0
 0 0 0
 0 0 -0
 0 -0 0
 -0 0 0
 -0 0 0
 0 -0 0
 -0 -0 -0
 -0 -0 -0
 0 0 0
 31682.018432405748 26232.943433844019 -999153.68306724739
 29235.41365362483 24243.930592448545 -999278.50092850998
 25787.070970315435 21381.683467298382 -999438.76780064718
 22549.213008602706 18663.626457953069 -999571.5092178901
 20047.604813826762 16417.701189464231 -999664.21994031686
 18333.511896520566 14646.050758505386 -999724.64986051014
 17266.573218427588 13267.092908847735 -999762.89673854201
 16688.464373009032 12209.890705088543 -999786.18400428037
 16450.864770097251 11424.335543006606 -999799.40668401902
 16438.942836962495 10883.199814881562 -999805.6396721279
 16580.175833767331 10566.805540571509 -999806.70151284197
 16818.722694261127 10450.356656402697 -999803.94108679506
 17094.485991614121 10511.29053034651 -999798.6253841666
 17339.927953243841 10740.435612024481 -999791.96333109238
 17486.247206808013 11145.977134169079 -999784.97605852573
 17469.455113154709 11748.253741817076 -999778.37377694226
 17226.850503555219 12568.179822129659 -999772.61238627997
 16675.917483584151 13621.015137270408 -999768.16398738709
 15690.444225487519 14930.893051265006 -999765.41168050934
 14114.296084265667 16546.078599315089 -999763.47899342235
 11783.930188219312 18534.508000552069 -999758.77640683739
 8555.463153002298 20972.541359251903 -999743.44536944688
 4488.5819071052829 23842.28230677827 -999705.65578417468
 128.65245335092123 26774.57772364733 -999641.48845286865
 -3211.4142277384408 28667.155893579547 -999583.85390703008
 0 -0 0
 0 0 0
 0 -0 -0
 0 -0 0
 0 -0 -0
 -0 -0 0
 0 -0 -0
 0 -0 0
 0 0 -0
 32638.173884194272 26274.052307661619 -999121.82629589248
 30041.082540803163 24152.027551224717 -999256.830311878
 26454.862591874047 21054.79521077664 -999428.25447546632
 23030.408205140691 18061.168634980426 -999571.60548179026
 20258.342374074389 15584.873880624315 -999673.30226948624
 18254.624964987401 13666.67657683427 -999739.9614993548
 16950.32582731183 12217.81501468956 -999781.6818939097
 16207.183125418869 11132.799193658348 -999806.67531140882
 15885.151173306102 10329.151812490596 -999820.46918186068
 15862.989671797734 9750.6265394341099 -999826.63039187004
 16045.455357677722 9362.0676306958176 -999827.43263627414
 16362.299683050769 9140.0418157136974 -999824.35196622869
 16757.048755759766 9065.7798310750641 -999818.49000358628
 17176.158592299664 9125.5212541677247 -999810.83432709996
 17564.513422694174 9313.8262026477278 -999802.3507222269
 17865.485379793274 9634.9510438271864 -999793.9748520829
 18021.148610421191 10100.819657441147 -999786.58304910711
 17968.273291795609 10727.498475970226 -999781.00698670978
 17628.512813533413 11535.270720642291 -999778.06190443295
 16899.022376027402 12556.311203567291 -999778.35648292245
 15653.700576347219 13844.033107875404 -999781.62835970032
 13750.766777975958 15477.364966934843 -999785.66082270769
 11052.80104279135 17556.13666080817 -999784.78566872352
 7494.2337748652481 20157.64408279999 -999768.72617878916
 3194.8386674707185 23218.357433059675 -999725.31271544774
 -1337.4641720435022 26286.695792253064 -999653.5503932921
 -4851.4952323701236 28203.489186886171 -999590.4292217365
 0 -0 0
 0 -0 0
 0 0 -0
 0 0 -0
 0 0 -0
 0 -0 0
 -0 0 -0
 34287.570554455706 25988.030766560827 -999074.06370216084
 31255.056943662181 24089.669535096884 -999221.10127695883
 27319.185810190778 21053.508605861498 -999405.02893574187
 23611.664790673683 18001.125607035894 -999559.1271969321
 20581.591290276516 15407.263873977641 -999669.45252912352
 18321.406995962559 13370.806072659243 -999742.74070415518
 16776.829406731762 11835.729316041708 -999789.20453594346
 15834.991541539292 10701.008142819403 -999817.35405403259
 15368.377515775814 9870.3503138356409 -999833.18066426204
 15259.252995260769 9269.5230669648172 -999840.60286634578
 15408.432519344316 8846.9810435841009 -999842.14310745639
 15736.558515037843 8569.020748303863 -999839.45341715624
 16181.086069283254 8413.6184957921905 -999833.67790719378
 16689.908062442915 8365.7938456047814 -999825.7150434769
 17215.035059274687 8416.1200035078564 -999816.38888947724
 17708.69735446091 8561.0554273748239 -999806.53646992019
 18121.558823572359 8803.1579442022048 -999797.03616084647
 18401.234525560005 9150.4693694275538 -999788.80943840044
 18489.297987154343 9615.9923139206239 -999782.81569136854
 18316.413193149245 10219.257712008099 -999780.01369278901
 17797.780581055387 10991.125424818078 -999781.19314592239
 16831.776189290496 11979.896107063469 -999786.56392230908
 15301.819995325184 13255.749703189284 -999795.04869980074
 13084.455061053079 14909.309129972982 -999803.23541035911
 10071.882038819806 17032.785620242706 -999804.20153458579
 6212.9777219695125 19668.140908898677 -999787.25894112804
 1602.4448898940186 22694.399359388412 -999741.16470619116
 -3294.5209211740253 25600.939084966518 -999666.81351831823
 -7248.8969876587853 27189.085290672185 -999604.02516872587
 0 0 0
 0 0 0
 -0 0 0
 0 -0 0
 -0 0 -0
 37219.218279485227 24370.134258448034 -999009.92304725829
 33478.681687047305 23392.51274772633 -999165.63602830376
 28857.26983487765 20858.292334460617 -999365.89376392437
 24613.957507716517 18028.122153628123 -999534.46159070602
 21177.788314015303 15499.721840284305 -999655.57063670713
 18595.246887598438 13450.581362262505 -999736.61464117956
 16780.270408813376 11875.84389288294 -999788.6710984672
 15610.290816363802 10703.031739484219 -999820.865921597
 14959.651140875389 9845.3301997092312 -999839.6262956385
 14712.813679601188 9225.3359378295427 -999849.20177517936
 14770.302706187054 8783.1527714697495 -999852.33629039477
 15049.868266269976 8476.2438600221103 -999850.81624970096
 15484.810868489671 8276.0421727889006 -999845.85199835757
 16020.581030855286 8163.9115184393086 -999838.33269791806
 16610.364076095262 8127.9497617254419 -999829.00149872154
 17210.874684810711 8161.2902837009151 -999818.57310888625
 17779.27693902903 8261.5156257609069 -999807.80386586848
 18271.192894801039 8430.4601429820286 -999797.52492791205
 18639.090324439789 8674.1203493654575 -999788.64963953337
 18830.281820369644 9003.0527631741916 -999782.15903641179
 18784.334778137436 9434.0109009577282 -999779.04969311261
 18430.478712506312 9993.1356995443075 -999780.20319134055
 17685.73450086192 10719.930096397227 -999786.12607591902
 16453.862767289491 11670.447385058638 -999796.51482582581
 14625.845327071813 12917.063336557225 -999809.59893533133
 12083.665274333041 14539.755651900306 -999821.27429812204
 8710.1579636031493 16601.435750652381 -999824.24729512644
 4419.7565799290687 19093.05446290904 -999807.94206840091
 -742.96560178831169 21815.050073379476 -999761.74741405773
 -6332.8872777169718 24133.138447064895 -999688.69462819409
 -10977.755881894534 24716.886384948524 -999634.21530239307
 0 0 0
 -0 -0 -0
 0 -0 -0
 0 0 -0
 36229.95904486037 21821.580619072822 -999105.20401351782
 31505.787564024882 20148.540233614931 -999300.46616441908
 26473.624943913444 17817.977266758477 -999490.70374288619
 22357.657861949185 15549.443518851005 -999629.1061894818
 19266.705968985629 13621.305707657017 -999721.58827941865
 17070.254681770632 12092.476632413676 -999781.16526267596
 15604.227167368803 10930.033954717641 -999818.50475586695
 14719.028976717766 10069.741488389696 -999840.96259972255
 14287.828643198274 9444.0605287400485 -999853.32307963655
 14205.556017224817 8994.4143939788955 -999858.64135284175
 14386.281699415964 8675.2030361745492 -999858.87791785225
 14760.16972490047 8453.4651795453028 -999855.32769303699
 15270.15390523488 8306.6590593279197 -999848.89949180942
 15868.424005502737 8220.0338811514557 -999840.29932913522
 16512.905221145287 8184.4223852114565 -999830.15517205617
 17164.135228432409 8194.8127996503208 -999819.1023905467
 17782.859775354027 8249.6137949607892 -999807.83842218597
 18328.341257848155 8350.3743025985295 -999797.15100401361
 18757.073041308471 8501.8509991200408 -999787.92288190383
 19021.526094723733 8712.5786990761135 -999781.11230280786
 19068.696376216318 8996.1977954671856 -999777.70191364863
 18838.41609559644 9373.6032477508961 -999778.60031167045
 18261.342701952919 9875.5134579213991 -999784.47557294287
 17256.291339475825 10544.601113298189 -999795.49498713424
 15726.561087705984 11435.701039997011 -999810.93213571049
 13555.174483944194 12611.6250122808 -999828.58738848811
 10600.345285887055 14130.7019325492 -999843.9657980206
 6699.8627329306564 16018.605264339118 -999849.24669909372
 1718.1531818932085 18208.19255916178 -999832.74084887409
 -4234.2827126211396 20416.154579525115 -999782.60211012617
 -9849.7581119931056 21946.73238163552 -999710.619730982
 -0 0 -0
 -0 -0 -0
 0 0 -0
 40296.399668952865 20136.265770903607 -998984.85022272659
 35599.945883478191 19333.798870985509 -999179.08708815032
 29673.424391810069 17405.598661356798 -999408.09133211605
 24529.535551666177 15427.296080427603 -999580.06203668681
 20630.761511179189 13697.183261853264 -999693.33240257239
 17845.076785445159 12290.069441944472 -999765.22615443775
 15947.979740600043 11197.473612580729 -999810.12123647216
 14739.159126097082 10376.099484646429 -999837.53367621696
 14059.234029457504 9772.4536593819321 -999853.40779935359
 13784.328318108468 9335.3477609663241 -999861.41218420875
 13817.856584843777 9021.5254525690743 -999863.83018784586
 14083.693969722774 8797.3443410787495 -999862.11864272167
 14520.899714518084 8638.2705549858583 -999857.25168810971
 15079.488223104996 8527.3700273988034 -999849.93523795623
 15716.856483082902 8453.5619203711685 -999840.7461756838
 16394.721885686744 8410.0998119972446 -999830.22724632779
 17076.60560370962 8393.4875753232409 -999818.95306469256
 17725.936311179004 8402.8505197401082 -999807.57312846708
 18304.73629560769 8439.6864571131428 -999796.83352251805
 18772.724859129245 8507.9722569183377 -999787.57704296312
 19086.586301192638 8614.6714324872482 -999780.72078805231
 19199.135164937295 8770.7280174543284 -999777.20895155543
 19058.073890220308 8992.5189326092895 -999777.93755555619
 18603.918951472562 9303.5487042120749 -999783.64568598312
 17766.454083540917 9735.9152647640713 -999794.76147020038
 16458.91000909741 10330.795234453584 -999811.17164749478
 14569.108619733142 11136.785778632842 -999831.84239978425
 11947.824283480893 12204.382442304559 -999854.14063456922
 8399.3420017510616 13573.661379271194 -999872.59526936652
 3696.3902129348958 15249.61894935214 -999876.88533203583
 -2294.394083756099 17150.796505854505 -999850.28175972577
 -9072.9486615705064 18946.31219797123 -999779.33508183784
 -14490.352981208593 19380.98461504138 -999707.16067548073
 -0 -0 0
 0 0 -0
 39485.424675468807 17886.353696156541 -999060.04803998338
 34042.447333162512 16814.693765606327 -999278.92895484285
 27962.142414874601 15171.538819971242 -999493.84340345219
 23001.452877244068 13629.157930191674 -999642.52571589302
 19360.594879522898 12361.839872452307 -999736.14132974041
 16829.876207036607 11374.068073194216 -999793.67163546418
 15156.038495762521 10628.536142059806 -999828.64967782958
 14129.14793270976 10079.003189042258 -999849.37909337669
 13589.860877657205 9680.6512762625716 -999860.79064647469
 13419.252132897735 9394.3110584021833 -999865.82629467431
 13527.726037119295 9188.0888406086397 -999866.28088546009
 13846.3572044679 9037.507295277519 -999863.29158243129
 14320.578151805925 8924.7748416016693 -999857.62458233279
 14905.516444684483 8837.6369974081899 -999849.84960333887
 15562.425837049512 8768.1584247474948 -999840.45242223761
 16255.894496521682 8711.6594915520509 -999829.91197654291
 16951.710007112368 8665.9340629186972 -999818.75413229363
 17615.331669599327 8630.772818497122 -999807.5864138687
 18210.910126296447 8607.786519837462 -999797.11380039528
 18700.716796011373 8600.5120306991357 -999788.13474862021
 19044.770784096454 8614.8221728600311 -999781.51690492441
 19200.357083127416 8659.6441697999198 -999778.15381750185
 19121.026648945957 8747.9611305437757 -999778.90531654481
 18754.501797047484 8897.9676217512078 -999784.5242023638
 18038.715958848912 9134.1670803606939 -999795.56496230967
 16895.028997338777 9488.0800590952749 -999812.24954086798
 15217.684680201844 9998.1393089521171 -999834.21589948237
 12859.447044720126 10708.15106588639 -999859.97525776282
 9617.325648560367 11663.050462169318 -999885.73362224048
 5236.6392272952226 12897.617301289562 -999903.10984492523
 -499.93902589113878 14399.200014771823 -999896.20116285328
 -7388.0474613826364 15968.958354182838 -999845.19257922645
 -13588.479273645315 16909.854181853618 -999764.67734291253
 0 0 0
 -0 -0 0
 38432.098025643063 16112.572809005649 -999131.3021013916
 32634.49003885717 14843.641147350669 -999357.12154234061
 26610.944196328936 13451.855614661781 -999555.35375961172
 21876.461113430883 12287.092977109616 -999685.17434006417
 18471.011041400125 11394.801565117341 -999764.46238521626
 16142.040209751483 10736.998778065072 -999812.05803646229
 14629.531162893925 10263.09050109244 -999840.31014523515
 13725.888772266811 9927.2828960237566 -999856.51422177255
 13276.766753061702 9691.4449063289576 -999864.89255309489
 13169.133658328863 9524.9622653768456 -999867.91578314593
 13319.354900141518 9404.062550251856 -999867.07036115299
 13663.979401638348 9310.9836642951359 -999863.29128042015
 14153.083900962729 9233.0339690892906 -999857.21045548189
 14745.490025336985 9161.6203641175653 -999849.306263807
 15405.260814417783 9091.335336098844 -999839.99998051999
 16099.111556553553 9019.1970261223287 -999829.72184872231
 16794.537518473015 8944.0902332790047 -999818.95699143421
 17458.562497790615 8866.4365930912372 -999808.27406940935
 18057.016772929219 8788.0833321272839 -999798.33653422806
 18554.216727558498 8712.4124181422376 -999789.89538376685
 18912.828907387815 8644.6562126348126 -999783.76403184549
 19093.601451728951 8592.4206012915147 -999780.7783168332
 19054.5023087927 8566.3790645579647 -999781.74772871623
 18748.646320336764 8581.0934173676378 -999787.40394991846
 18120.201421961836 8655.8777954033867 -999798.34670798434
 17097.318260012245 8815.6438050016768 -999814.96594750916
 15581.158237671212 9091.6777761590547 -999837.27121126442
 13430.872455450053 9522.3193724319081 -999864.45936379547
 10447.565977939172 10153.106321773723 -999893.87576740119
 6371.095927020735 11033.705925964383 -999918.82994082477
 938.97956429863939 12199.930039726431 -999925.13720998296
 -5816.0838603622497 13603.173318861882 -999890.5574332556
 -12320.282003099752 14891.331264583603 -999813.21200738917
 -0 0 -0
 44012.536344115681 15720.593020526461 -998907.28278436407
 38531.601674146397 14761.867066361416 -999148.33881318138
 31652.704451995436 13285.178664000743 -999410.631486748
 25644.842007146362 12095.726131330468 -999597.93691653048
 21108.110827948323 11243.201504503977 -999713.97813434852
 17894.862321363649 10654.874419349302 -999783.1002540536
 15717.736651892412 10259.122429402438 -999823.83606389386
 14316.842294544185 9999.1323479523962 -999847.5110630627
 13491.249882544351 9831.8363677864563 -999860.65087603277
 13093.494189219229 9724.86710387112 -999866.98483834777
 13016.589664924546 9653.9943957548421 -999868.67576982419
 13182.06031978892 9601.3065731481474 -999867.01525643596
 13530.75715327818 9553.8911211925988 -999862.81147730642
 14016.231916763063 9502.7992914453953 -999856.61074400169
 14600.012980690577 9442.1811209981952 -999848.83099228644
 15248.22431093856 9368.5715091365109 -999839.84793727915
 15929.16763502289 9280.3284874071142 -999830.05412000942
 16611.655732214949 9177.2454476607727 -999819.89931178489
 17263.966494640681 9060.3320697802064 -999809.9148556476
 17853.318669218326 8931.7673980541658 -999800.72141584405
 18345.726133984186 8795.0027660687992 -999793.01970906043
 18706.017813228911 8655.0110932442767 -999787.56527601776
 18897.689760975958 8518.6560280470239 -999785.13182642066
 18882.127026926148 8395.1742677246948 -999786.47036652442
 18616.567377130857 8296.7459106831739 -999792.27213776065
 18050.026599297329 8239.1685062829347 -999803.13694351341
 17116.274255718628 8242.6777806177888 -999819.52942448959
 15723.007625827247 8333.0648157938831 -999841.66099536675
 13736.993203679358 8543.3209133014152 -999869.14478120289
 10967.334410287414 8916.0356969353325 -999900.1059522815
 7156.5254008404518 9506.1360864561011 -999929.20625456935
 2012.0886795538984 10380.830151915559 -999944.0933694758
 -4613.7055819381849 11599.958459258827 -999922.07430606626
 -12076.057351242709 13060.892437134633 -999841.77844676748
 -17966.524936503232 13740.77274907452 -999744.1648471693
 43769.615674824701 13193.125940273881 -998954.53458683612
 37744.251118638109 12589.474432848236 -999208.12478732283
 30785.030626433672 11641.222683563152 -999458.23515730817
 24970.895397474073 10865.272263106235 -999629.13134907011
 20634.28181965958 10342.966547679336 -999733.58924104401
 17576.269205334407 10023.122032950087 -999795.2849386388
 15508.350404412166 9844.0405384652768 -999831.27873337257
 14179.164028297047 9756.4192699260184 -999851.8708241178
 13396.603094626922 9723.9116722534163 -999862.97889626608
 13020.418281049331 9720.2141321843555 -999867.98435844062
 12949.258210174818 9726.4073014789883 -999868.84825601592
 13109.040681646409 9729.0296626504369 -999866.74063808622
 13444.049536589289 9718.7281443172487 -999862.39245973981
 13910.493299594944 9689.2748404470658 -999856.29773944442
 14471.93194453268 9636.8266023709821 -999848.83595413016
 15096.040670698419 9559.3580413784457 -999840.35137111053
 15752.353173421232 9456.2540625359488 -999831.20706877555
 16410.757560758993 9328.043539334345 -999821.82144620654
 17040.61194805519 9176.2757564269068 -999812.68921117322
 17610.359867808773 9003.5147057621216 -999804.38684188097
 18087.504097629419 8813.4441926354575 -999797.56220796087
 18438.712775728072 8611.0512412535409 -999792.91039079416
 18629.733017146813 8402.8808476460581 -999791.14050944173
 18624.646315065751 8197.3377684974694 -999792.94166499679
 18383.865744392573 8005.0517755777018 -999798.95610385726
 17860.125248850763 7839.3304222277638 -999809.7623171251
 16991.622094824652 7716.7991200277474 -999825.85273132834
 15691.519894293117 7658.3741223018387 -999847.55113427644
 13833.56995924028 7690.7818994108929 -999874.7342622265
 11235.57882468063 7848.6846173143158 -999906.07554822497
 7648.6060625247255 8176.6130621661205 -999937.31894760905
 2778.117333362196 8726.0160158637045 -999958.06847516017
 -3583.3839880441888 9526.350979418874 -999948.20265662298
 -11096.878408041159 10454.261542419355 -999883.77709871856
 -17631.380023333619 10962.880026637611 -999784.45161944523
 43615.222686271947 10561.998425945572 -998992.57081285503
 37291.023193449866 10394.437181678861 -999250.38667236059
 30308.851302542706 10021.781130506592 -999490.33884059766
 24628.646222461866 9693.0162871902048 -999649.67624688649
 20432.448926690668 9494.5468972217004 -999746.1520856556
 17479.66800066319 9415.7007051729252 -999802.88346594444
 15479.824471741775 9420.7396131188234 -999835.79886872729
 14188.524553337642 9475.4016556829047 -999854.44067347259
 13421.074638889682 9552.800102328807 -999864.30017564981
 13043.292431616273 9633.176105685674 -999868.52857796266
 12958.48748818178 9702.4250563268142 -999868.96168950305
 13096.118527695262 9750.7157720117484 -999866.6987261062
 13403.156710160289 9771.4216437523683 -999862.42789158912
 13837.851472025928 9760.3308618426454 -999856.61462436977
 14365.31746758589 9715.0600638385658 -999849.61632338085
 14954.447235496686 9634.6353018642731 -999841.75663475902
 15575.792648462644 9519.2059424041126 -999833.37581899029
 16200.197366567412 9369.8866641903969 -999824.8640782967
 16798.029418581758 9188.7000208152276 -999816.68019671494
 17338.895395504012 8978.61162643223 -999809.35544719023
 17791.678355631542 8743.6207022383351 -999803.48332975165
 18124.681179479499 8488.8935194129244 -999799.69724888296
 18305.544544537755 8220.9044807135524 -999798.64161162323
 18300.496381834411 7947.5874433293357 -999800.94403136522
 18072.347432021546 7678.4929247450154 -999807.19691583572
 17576.531060566391 7425.0035451557487 -999817.95086817257
 16754.384927864779 7200.6701167913006 -999833.7066410383
 15522.917680448903 7021.7783188841649 -999854.85629461566
 13760.722999106356 6908.1719123707726 -999881.45280496671
 11291.300900983013 6884.0327628895784 -999912.55448508239
 7869.9510224757587 6977.0677568844812 -999944.69066864881
 3194.8621522044491 7210.9244148784264 -999968.89722876437
 -2993.9428647950072 7577.1281784761795 -999966.81116659543
 -10522.0707163604 7968.0291123624975 -999912.89447626611
 -17368.62328143826 8137.8480960063189 -999816.03625550726
 43733.752169086751 8401.8033217555985 -999007.89217210666
 37270.178381178725 8503.1563273159463 -999269.04792248446
 30246.783467433776 8531.6611089308572 -999506.04943071597
 24612.83280384629 8564.5153108579398 -999660.37109553337
 20481.692103404614 8646.0069796408079 -999752.84288262436
 17579.46796613056 8776.9150816742258 -999806.94539879891
 15608.035744871715 8939.7309078380476 -999838.22212970152
 14324.905563643033 9114.2456262214473 -999855.85341450968
 13549.529759465189 9283.1967722879781 -999865.10715245199
 13151.72004373354 9433.3614887620315 -999869.01339671179
 13038.069093921777 9555.157372245747 -999869.34532562492
 13140.600071726423 9641.9302170587216 -999867.17008382885
 13408.257908563122 9689.298418365237 -999863.15869523759
 13800.809935958185 9694.6253810203525 -999857.76582663658
 14284.564982236059 9656.6297768476888 -999851.33930230909
 14829.40526088964 9575.1111225594668 -999844.19085505453
 15406.785381377329 9450.7890205667682 -999836.64343286632
 15988.464804957754 9285.2302086937379 -999829.06213669945
 16545.825841242851 9080.8577996450804 -999821.87096945103
 17049.639781153277 8841.004936871117 -999815.55619776167
 17470.128715765335 8569.9982233807568 -999810.6569411559
 17777.093521676328 8273.22700852669 -999807.74584956432
 17939.794216919676 7957.1888974095773 -999807.40491771977
 17926.143382131813 7629.4844087437396 -999810.20416432037
 17700.661214460117 7298.7826440977669 -999816.69038103451
 17220.508997228997 6974.7752113616534 -999827.38839293015
 16428.832383401979 6668.1859916215371 -999842.80202544795
 15244.630338453208 6390.8727306138744 -999863.36966186797
 13548.670484024648 6155.9920721750277 -999889.26251346583
 11166.181021265524 5977.8488934898378 -999919.78764499247
 7851.0812062691257 5870.2091998529131 -999951.94942949247
 3289.3403966357291 5840.0925125037875 -999977.53652729653
 -2817.5101702354177 5872.5722789304164 -999978.78704064013
 -10364.381798382721 5909.6710254871241 -999928.82515622489
 -17331.565036661108 5868.4454772073786 -999832.57508497941
 44127.683010056287 6543.8120248584828 -999004.46751571016
 37597.83288454538 6813.7528906596808 -999269.72121341247
 30527.670494519753 7121.3193719721667 -999508.55331236683
 24882.545857896836 7436.1153975543384 -999662.72467238863
 20755.101829388408 7753.0037712974563 -999754.52821208758
 17854.420606742653 8066.1172817595143 -999808.06028797058
 15875.25977306815 8366.6061288299625 -999838.97504999395