# OOMMF OVF 2.0
#
# Segment count: 1
#
# Begin: Segment
# Begin: Header
#
# Title: Oxs_TimeDriver::Magnetization
# Desc: Oxs vector field output
# Desc:  MIF source file: /mnt/gpfs/work/plgrid/groups/plggspinsym/MF/switching-obrazki/p-ap/Anisotropy.mif
# Desc:  Iteration: 21800, State id: 152750
# Desc:  Stage: 0, Stage iteration: 21800
# Desc:  Stage simulation time: 3.20963e-09 s
# Desc:  Total simulation time: 3.20963e-09 s
# meshunit: m
# meshtype: rectangular
# xbase: 1.0000000000000001e-09
# ybase: 1.0000000000000001e-09
# zbase: 3.4999999999999998e-10
# xnodes: 35
# ynodes: 35
# znodes: 5
# xstepsize: 2.0000000000000001e-09
# ystepsize: 2.0000000000000001e-09
# zstepsize: 6.9999999999999996e-10
# xmin: 0
# ymin: 0
# zmin: 0
# xmax: 7.0000000000000005e-08
# ymax: 7.0000000000000005e-08
# zmax: 3.4999999999999999e-09
# valuedim: 3
# valuelabels: Magnetization_x Magnetization_y Magnetization_z
# valueunits: A/m A/m A/m
#
# End: Header
#
# Begin: Data Text
 -0 0 -0
 0 0 -0
 -0 -0 0
 -0 0 0
 0 0 0
 -0 0 -0
 0 0 0
 0 -0 0
 -0 0 0
 0 0 0
 0 0 0
 -0 -0 0
 0 0 0
 35841.649071831722 31569.403733339932 -998858.72321351466
 33267.319983547502 32406.4443085118 -998920.97174320626
 29853.214865412461 33505.212442174372 -998992.58570892515
 26449.15829964876 34743.753740794389 -999046.20193524554
 23085.862153696118 35993.135400790612 -999085.35029427812
 19624.160291017652 37142.302098236585 -999117.28126767767
 15890.29120834835 38115.637381968852 -999146.98459850275
 11756.374836734167 38849.662063333184 -999175.90613878542
 7734.79094206221 39213.350123851473 -999200.92382920999
 0 0 0
 -0 0 -0
 -0 0 -0
 -0 0 0
 0 -0 0
 -0 0 0
 -0 -0 0
 0 0 0
 0 -0 0
 0 -0 -0
 0 -0 0
 -0 -0 0
 0 0 -0
 -0 -0 -0
 -0 -0 -0
 -0 -0 -0
 -0 0 -0
 0 0 -0
 0 0 -0
 -0 -0 0
 0 0 0
 0 0 -0
 0 0 0
 40279.287210147289 24727.001348640464 -998882.45275715343
 39035.974446993903 25207.591292257075 -998919.80160582275
 37804.953943677181 25739.730865016671 -998953.57835702901
 36293.668641289107 27001.653899623914 -998976.31618734647
 33686.178093462178 27377.854475339409 -999057.40300033928
 30510.803483274129 28050.580347060924 -999140.75875874353
 27235.932085469609 29013.998532893333 -999207.88222099666
 23899.89651864754 30090.148127184963 -999261.41621303593
 20414.095929148007 31153.049283418666 -999306.13537981466
 16651.391336607587 32159.148513879049 -999344.04502824636
 12488.410701917015 33155.30414921105 -999372.18562701321
 8060.4665181512155 34207.025328102951 -999382.26334957173
 4179.1213238458895 34618.679749679206 -999391.85605914833
 994.72888788762896 35942.409354463663 -999353.36779551383
 -2125.3497518452923 36596.771280789777 -999327.85371981608
 -0 0 -0
 0 -0 0
 -0 0 -0
 0 -0 -0
 -0 0 0
 -0 0 0
 -0 0 -0
 -0 0 0
 -0 0 -0
 -0 0 0
 0 -0 -0
 -0 0 -0
 -0 0 0
 -0 0 0
 -0 -0 0
 0 0 -0
 0 -0 -0
 -0 -0 0
 42123.95507032668 21245.435332490339 -998886.48198219493
 41363.277168502129 21385.300042204937 -998915.28581956658
 40403.354259702464 21625.753273265091 -998949.39599557733
 38977.700562673643 21272.538965165801 -999013.62250212685
 37529.297536967068 21142.212897045185 -999071.84859758604
 35913.108077628356 21257.490888422984 -999128.80438376579
 33677.672954514856 21375.678394134742 -999204.13065477228
 30948.882174928818 21806.684267738594 -999283.06060563726
 27945.047004637265 22523.768663092884 -999355.66951567342
 24737.538253488245 23388.158805151041 -999420.35612091795
 21320.843740642922 24298.266720225958 -999477.37135794107
 17663.058592020669 25233.145731095516 -999525.53980260459
 13747.848672585058 26264.323495769582 -999560.4944015072
 9695.0920879203477 27505.705114056138 -999574.63021806697
 5844.1937049480803 28873.949008959811 -999565.9760458871
 2161.3352768669065 30462.275954848377 -999533.58041312045
 -1775.553822836263 31866.738646056983 -999490.54941839539
 -5567.9512900297004 32293.851805875678 -999462.90829323512
 -8675.1423947144194 33001.042948893468 -999417.66697848449
 -0 0 -0
 -0 -0 -0
 0 0 -0
 -0 0 0
 -0 0 -0
 0 0 -0
 0 -0 -0
 -0 -0 -0
 -0 -0 0
 0 0 0
 0 0 0
 0 0 -0
 -0 0 0
 0 0 0
 -0 -0 -0
 42475.753068551632 20168.557427123054 -998893.90812666796
 41974.677610818224 19642.411510460093 -998925.57385899452
 40688.130322927944 18574.214642116782 -998999.23653687199
 39463.46353082703 17631.61793306527 -999065.44385000796
 38241.791009733388 16838.305294961454 -999126.63706617372
 36982.775344697431 16410.542143330655 -999181.14895866904
 35520.41979489752 16294.344500624131 -999236.10528988054
 33621.919267474026 16390.873063682691 -999300.20805810974
 31262.759673341625 16737.364346487222 -999371.05245866498
 28522.833989271759 17293.002590744967 -999443.54518032528
 25474.495143839948 17970.190633522783 -999513.9430472001
 22171.015966416897 18701.962331063365 -999579.252813895
 18657.778413642434 19475.716817791257 -999636.22571368457
 14989.813728424409 20339.228768676337 -999680.75967154768
 11263.513598285048 21367.44800263489 -999708.24015173339
 7595.2456753047672 22583.790521373638 -999716.10202537931
 3931.2147683923295 24013.701111161488 -999703.90001709433
 73.971706411427476 25607.250371880516 -999672.07786182477
 -3982.4430540581106 27211.366562739287 -999621.76930932689
 -8230.2336683969079 28786.918557336568 -999551.68779495172
 -11892.383887218626 29099.43850240788 -999505.77481289394
 -0 -0 -0
 0 -0 0
 -0 0 -0
 -0 -0 -0
 0 -0 -0
 0 -0 -0
 0 0 -0
 0 -0 -0
 -0 0 -0
 0 0 -0
 -0 0 0
 -0 0 0
 -0 0 -0
 41231.476519644501 20618.38790633739 -998936.85857723455
 41329.224507580162 19362.723744856281 -998957.94712829764
 40367.968641325708 17447.799038079993 -999032.53271177295
 39181.360616285063 15663.490369199922 -999109.34138847433
 38198.784968828666 14333.830145797972 -999167.35041746474
 37334.904508698499 13434.282508023809 -999212.5024031779
 36404.537451171993 12940.760471237769 -999253.34443843237
 35213.488116810579 12773.09490072653 -999298.18287701486
 33600.552774846336 12846.912661433393 -999352.77039106376
 31511.928775296099 13117.992987952079 -999417.28852608346
 28979.319083645922 13533.480962502059 -999488.39110741322
 26073.784185452187 14032.934367615782 -999561.52113378432
 22882.110607085455 14572.861693056524 -999631.95262868621
 19496.584797514697 15144.347718199442 -999695.21951113851
 16010.23396847296 15775.963251436855 -999747.36378335301
 12511.976598939173 16518.426848150051 -999785.27295417269
 9058.2114341455253 17419.424773673712 -999807.23764442164
 5609.6320621208397 18530.833202328002 -999812.55255620566
 2033.7077871150238 19900.521697689215 -999799.89661371557
 -1819.7073521773145 21566.819263344918 -999765.7530501904
 -6088.7116760170875 23561.798306122892 -999703.84077020921
 -10489.209860718041 25544.099591218019 -999618.66501810169
 -13708.310226642876 26573.655543595032 -999552.86156450014
 0 -0 -0
 -0 0 -0
 0 0 0
 0 0 -0
 0 -0 0
 -0 0 0
 -0 0 0
 0 -0 0
 -0 -0 -0
 -0 -0 -0
 0 0 0
 39620.813409770773 21789.168392589319 -998977.18857114413
 39807.311995889715 20223.867540164505 -999002.68923230621
 39111.789856334057 17831.764487161414 -999075.72088881652
 38190.415515845583 15452.041025391176 -999151.00289739843
 37433.392456426576 13533.705484162434 -999207.47592533089
 36903.976698624872 12167.795768805654 -999244.7354126795
 36448.949362094267 11279.93057185629 -999271.85352970555
 35858.251998766238 10778.775284540581 -999298.75601191376
 34941.490407655496 10572.051658414242 -999333.43983468472
 33564.885340679262 10578.749733767661 -999380.5524054073
 31676.441559226721 10737.651107290923 -999440.49642729759
 29299.282391848781 10995.957904773377 -999510.20052877849
 26509.266094696755 11308.525348424471 -999584.60175493115
 23413.216040335901 11646.256616769901 -999658.03454054473
 20130.428686853618 12003.673233204705 -999725.30110515549
 16776.425472632505 12400.379005083796 -999782.36739246978
 13446.272858024016 12875.331645775452 -999826.6967736152
 10191.324474213878 13479.038649675747 -999857.21601763822
 6991.2042472061021 14274.852387837705 -999873.66784633312
 3746.8837794234141 15341.498393934908 -999875.29186842707
 300.59282910134692 16777.22815768623 -999859.20721834456
 -3520.2899269276681 18689.438591328359 -999819.13986679167
 -7727.9559982804712 21069.515970118289 -999748.14538106218
 -11864.776721602258 23555.131037162701 -999652.13093113969
 -14728.988949952727 25035.212538514043 -999578.05849151348
 0 -0 0
 0 0 0
 0 -0 -0
 0 -0 0
 0 -0 -0
 -0 -0 0
 0 -0 -0
 0 -0 0
 0 0 -0
 38435.258938798688 23001.958037458058 -998996.31670830015
 38301.185688624202 21444.788894518853 -999036.10555580782
 37475.157353591283 18925.98864005585 -999118.32108880894
 36618.693594591037 16285.688944834998 -999196.60108259856
 36043.17386529105 14004.252651237328 -999252.10558967385
 35778.418263610569 12243.321825887971 -999284.74713528063
 35704.318337261328 10989.193829529875 -999301.97601678362
 35623.897031085224 10155.308595719836 -999313.66830822639
 35328.76771337197 9646.2513662387701 -999329.18900952453
 34643.560178770414 9376.0911367712815 -999355.74879676092
 33452.705214251167 9273.4048971797092 -999397.27860118833
 31713.735330224285 9282.1320336225908 -999453.89139085088
 29454.334895631673 9358.2645609898227 -999522.31843029021
 26757.997748225498 9469.3604184292926 -999597.08921633603
 23744.593050986052 9597.25219676694 -999671.98973018897
 20549.450983861811 9740.8708520890923 -999741.38430861442
 17302.79996951939 9916.8999251220484 -999801.11432678939
 14110.006455849696 10157.962344077303 -999848.85033630568
 11031.999816387184 10510.589472375557 -999883.90450541535
 8067.8841458644638 11036.501614186873 -999906.5480721331
 5147.1753787537982 11816.390907078594 -999916.93629598618
 2136.1746585879828 12954.373045997952 -999913.80677377025
 -1135.4280401070437 14571.887319145888 -999893.17974627856
 -4800.9869049335239 16759.164729336266 -999848.02891355113
 -8823.6969961171326 19458.706748064793 -999771.724496654
 -12773.511711839848 22207.841236488326 -999671.77072585316
 -15511.119000337345 23823.142956115436 -999595.8498548551
 0 -0 0
 0 -0 0
 0 0 -0
 0 0 -0
 0 0 -0
 0 -0 0
 -0 0 -0
 38364.701093879477 23559.344767943228 -998986.03943402658
 37543.092061258321 22386.955371202999 -999044.21346989821
 36180.062942283424 20067.996937622422 -999143.77270961541
 35017.297810344135 17468.946912233772 -999234.01901048142
 34356.191911334485 15094.846365569754 -999295.65079137171
 34181.453018184133 13140.527082596154 -999329.25245764584
 34343.152426863191 11637.175607210618 -999342.34575808526
 34639.025311383113 10536.502834101158 -999344.34507506201
 34852.550927351862 9759.5691886431523 -999344.81061498914
 34783.045598727855 9226.0173032584244 -999352.30041442183
 34270.938130594659 8865.9084587866946 -999373.25282741548
 33216.149744919181 8622.9708877573248 -999410.99241963122
 31587.254188935003 8454.4303641082315 -999465.24100642034
 29419.641366546002 8329.4792898206142 -999532.4429335068
 26804.087893418218 8228.5560135167998 -999606.83858111664
 23868.852595904576 8143.7434851465532 -999681.92807402648
 20758.560643988196 8079.4018187409538 -999751.87192935089
 17612.707957755098 8052.2518801145561 -999812.45929326862
 14545.688275189841 8090.8849990961335 -999861.47067107866
 11629.420350227303 8235.6205629522028 -999898.46041298634
 8879.9033636652584 8539.9714992783265 -999924.10522151296
 6250.1597257283247 9073.7329652365443 -999939.2995944696
 3631.7208825462872 9926.103189273621 -999944.13997928251
 867.61459582499492 11202.941429286971 -999936.86868134071
 -2216.3262350581808 13006.160434635118 -999912.96005640854
 -5754.5886931969972 15380.532262069635 -999865.15287628025
 -9733.0955372919107 18194.351015340206 -999787.09355661948
 -13754.322843595863 20905.310316594434 -999686.84426858451
 -16699.936234155157 22285.126683558268 -999612.16742218216
 0 0 0
 0 0 0
 -0 0 0
 0 -0 0
 -0 0 -0
 39829.451027576899 22638.026640022083 -998950.01605720352
 38225.251174730009 22454.057671402723 -999016.83943100681
 35930.132038091113 20765.957231775821 -999138.52925006021
 34025.947600841959 18509.127114873663 -999249.5419580189
 32895.997569703621 16285.567189050782 -999326.08974509663
 32506.44542308434 14346.663131149591 -999368.55276867573
 32667.041830120459 12761.983085815697 -999384.80885281938
 33143.459031342492 11516.250684864915 -999384.25397521723
 33698.683723614733 10556.643441529839 -999376.28348612739
 34111.177980513021 9818.3995702748161 -999369.8147165844
 34190.012875336746 9239.7521402736947 -999372.63820857659
 33790.19339093013 8769.0907644956751 -999390.47717984987
 32825.479959222452 8367.243454663314 -999426.07385559892
 31275.081907623964 8007.2203600371795 -999478.74098140642
 29181.857036001838 7672.913933099192 -999544.66914275812
 26642.040332449506 7357.8244081350858 -999617.95907581772
 23788.421178879118 7064.1842523798668 -999692.05674480821
 20769.914570435616 6802.3924875083094 -999761.14052566723
 17730.54689433243 6590.6098757692871 -999821.07977792388
 14790.267089070443 6454.5764260422839 -999869.78474329063
 12029.075641870424 6428.0034152815279 -999906.98672991351
 9475.4327054088844 6553.9547127206779 -999933.6287237613
 7099.7095067879936 6887.1359356981502 -999951.07954515598
 4813.22319386865 7495.9981279974036 -999960.32066005061
 2473.3720596071948 8461.6467532478 -999961.14072741766
 -103.79307520781617 9868.1836340278514 -999951.3029036778
 -3120.3801615666193 11776.522175311269 -999925.78562266415
 -6749.1042818173964 14165.428634605276 -999876.88753315597
 -11017.630307118938 16807.018151991233 -999798.0475892392
 -15531.962190990193 19024.456948301169 -999698.36860341008
 -19018.744306683737 19480.558182638139 -999629.32891041657
 0 0 0
 -0 -0 -0
 0 -0 -0
 0 0 -0
 39929.748391498288 22037.701895312181 -998959.43605762348
 37230.322508019723 20985.360649054703 -999086.34147623996
 34254.041182299414 19207.647904077392 -999228.56590705726
 32221.145182416825 17285.364316943531 -999331.28340083722
 31231.323084431271 15510.859422137464 -999391.82391011307
 31072.605968737593 13987.261986321988 -999419.25619853742
 31467.53934158901 12724.267546853571 -999423.77747539186
 32143.298411537311 11689.467442222744 -999414.91119461693
 32850.687857262215 10834.113343818748 -999401.54807532614
 33371.335864929788 10107.1899301823 -999391.91444313037
 33525.520070894883 9463.7238761643384 -999393.05452578154
 33182.074640071201 8869.1415752622852 -999409.97005748295
 32267.544472839549 8300.7044100779785 -999444.79781526187
 30770.894144186939 7746.9801688115194 -999496.44140028406
 28741.227980626358 7206.2298341869091 -999560.90963269607
 26277.998809050052 6684.4537681531674 -999632.32483569311
 23515.129606227674 6193.5915618291147 -999704.29533095809
 20601.662326315327 5750.134550729188 -999771.22756260645
 17681.864751721987 5374.273116089088 -999829.2198407565
 14877.197549473523 5089.6592967187453 -999876.37453903118
 12271.694528573926 4923.8801448227359 -999912.57663743617
 9901.4525176541829 4909.6943461314122 -999938.92620472994
 7748.3630957922596 5086.832321174692 -999957.04258046602
 5737.7159970493412 5503.6319812868705 -999968.39382560074
 3739.0139340834266 6216.9036265754403 -999973.68459579919
 1569.4087540018934 7287.314112859488 -999972.21561860573
 -999.3483819605666 8765.9576338571842 -999961.07888735994
 -4222.7304738529856 10663.918530481969 -999934.22253112262
 -8322.3664901217708 12888.833179814917 -999882.30117112643
 -13261.222117795171 15121.106606816469 -999797.72560399817
 -17862.331934553975 16638.403518077721 -999702.00591287669
 -0 0 -0
 -0 -0 -0
 0 0 -0
 41948.654042658469 21751.269687342712 -998882.972470248
 39664.150366086324 21340.02412762414 -998985.16432726313
 35967.188214617818 19822.717108924353 -999156.3547605318
 32777.741763401988 18104.006781674289 -999298.68637126754
 30807.746862156942 16500.747057818386 -999389.11745116138
 29972.907460557566 15096.996653672515 -999436.69409843045
 29979.051164643559 13898.449438243922 -999453.89568227704
 30512.373867479841 12877.00238965228 -999451.43846533541
 31287.321111180529 11990.922912251115 -999438.50301326613
 32055.244212685069 11195.902476887768 -999423.39030372549
 32606.297201703299 10451.901785919037 -999413.62164613884
 32773.528306256529 9727.6230933032584 -999415.46375434555
 32439.584724685807 9002.9973200424938 -999433.14903106226
 31543.235057900652 8269.7755443501646 -999468.17614895967
 30082.336789960482 7530.4993642823592 -999519.05664303352
 28110.848318138993 6796.3547431545421 -999581.7074001705
 25729.283768563582 6084.5360185349818 -999650.43008953694
 23069.752667677734 5415.701875021834 -999719.18891509355
 20277.923623510913 4811.9557164529788 -999782.80186033482
 17494.545772046218 4295.5936628169202 -999837.73120607634
 14838.778086204729 3888.7034894985791 -999882.33740279602
 12394.729454858696 3613.5914472720542 -999916.65284592262
 10201.785704255803 3493.9275463538911 -999941.85632902943
 8248.5392001796008 3556.364738410025 -999959.65612164116
 6469.584370823015 3832.1369072750012 -999971.7292027775
 4743.9597588485003 4357.7695923313368 -999979.25212975603
 2893.9302942440686 5173.5602746348268 -999982.42956640839
 683.78411891158908 6317.8267462902968 -999979.80854839401
 -2176.6911867205908 7813.7101817325038 -999967.10343324463
 -6000.9883703281248 9643.1251036213525 -999935.49705809273
 -10976.509389266528 11694.228975867025 -999871.37235260778
 -16592.191276682137 13597.435527841086 -999769.87798978237
 -20672.541669741622 14077.604805309133 -999687.18460519356
 -0 -0 0
 0 0 -0
 42182.285962063703 20868.630330812826 -998891.96363727457
 38832.027814762958 20221.753185933849 -999041.11742904794
 34693.505663353506 18827.352522652764 -999220.64203146554
 31542.685370957966 17349.964278492804 -999351.80879364198
 29717.055146927043 16035.946203970985 -999429.70991597907
 29021.633715358585 14912.1537678929 -999467.54446880065
 29130.982865970826 13944.044348290179 -999478.33866696444
 29724.207573704069 13084.383745828649 -999472.49606285186
 30518.756816653458 12286.874681726458 -999458.6725787723
 31274.742122060128 11511.139321401528 -999444.53781924397
 31794.791773167104 10725.701222517284 -999436.86671514483
 31926.30832582921 9910.1662300396492 -999441.09353276901
 31566.097385032452 9056.3880075857796 -999460.63620941807
 30664.842838074903 8168.2695214696423 -999496.34655997669
 29228.496780969203 7260.1480078818058 -999546.38973227667
 27314.555381183287 6354.0868096959375 -999606.69297736452
 25022.691380191402 5476.6456859212121 -999671.88180328603
 22480.763515128689 4655.7601823736022 -999736.43485115678
 19828.212285724429 3918.2404446219989 -999795.72383030842
 17199.174457934201 3288.1898309886242 -999846.67634872929
 14707.266537751155 2786.428881204929 -999887.95978603407
 12433.306628862083 2430.8512819724283 -999919.74870402354
 10416.405530774915 2237.541136345656 -999943.24434213841
 8648.1677917726829 2222.4006091830988 -999960.13427005056
 7069.097442494216 2402.9479301386082 -999972.12646282988
 5565.8651604345741 2799.8189999210676 -999980.59089093516
 3967.9078953483386 3437.3695858838782 -999986.22000368813
 2042.7434398874921 4342.5314990034258 -999988.48474340909
 -506.34597947452272 5540.3266351381062 -999984.52407751034
 -4021.2748439130005 7041.1279086606992 -999967.12539283209
 -8780.6460396491075 8799.2852430354869 -999922.73343210772
 -14600.824859071354 10567.439065315612 -999837.55937904015
 -19716.940489476001 11605.648953303007 -999738.24132625188
 0 0 0
 -0 -0 0
 41776.625083372564 20663.036295692007 -998913.28578995599
 37852.101628930897 19529.299848342383 -999092.50064731576
 33582.327072493739 18123.588169333361 -999271.61615862197
 30550.620995264373 16835.203903977603 -999391.43255599088
 28874.712409159976 15744.024179923801 -999459.04202519008
 28284.721614261853 14818.972059194948 -999490.05627385434
 28442.923665564416 14002.329635574803 -999497.34109607898
 29034.55231100255 13238.080715576341 -999490.74432486249
 29788.515345071555 12479.249137831983 -999478.32027237723
 30478.688114331584 11689.733217737059 -999467.05784039106
 30922.882641018983 10845.328217906996 -999462.93287195789
 30984.073561929934 9934.5992869280763 -999470.50527892879
 30573.497076174135 8959.143852879246 -999492.36866419157
 29653.394361392198 7932.7317816903951 -999528.76295248617
 28236.995153064629 6879.1617163188912 -999577.58540235693
 26384.105439877429 5829.0817895097525 -999634.88373787166
 24191.96210989805 4816.3228743815553 -999695.72971141723
 21782.241250176761 3874.3805549933304 -999755.23161493579
 19285.967574973671 3033.5828676659316 -999809.40625185252
 16828.275681722087 2319.2648686247207 -999855.70466345246
 14514.719032317367 1751.0417516435109 -999893.12268071773
 12420.1800168728 1343.0978248732526 -999921.96456352586
 10580.764856650898 1105.3032441168596 -999943.41125875071
 8988.3588413113212 1044.9267380914241 -999959.0579285993
 7586.9718944886581 1168.688938692949 -999970.53557774238
 6269.5217453173209 1484.9104097607319 -999979.24385367124
 4873.5928818253442 2005.5217769337146 -999986.11289098649
 3175.427897638966 2747.6807902586106 -999991.18341510464
 884.84358444741156 3734.2476934551651 -999992.63619588467
 -2344.9812645197071 4989.8352455039358 -999984.80118804413
 -6843.4874440871599 6519.5560798143351 -999955.33003635949
 -12613.892769292765 8231.843919968991 -999886.55679276027
 -18147.516905680521 9713.5432312962148 -999788.13491061796
 -0 0 -0
 44579.407951779132 21027.384331344379 -998784.52405654069
 41564.006117073899 20356.352949716314 -998928.45203752536
 36846.201873972357 18900.440102702883 -999142.19747310574
 32619.655131396168 17529.299828768602 -999314.10564777977
 29755.640349816782 16407.426360581383 -999422.53237937076
 28212.401054201648 15490.664439183482 -999481.9156653058
 27687.660605219586 14705.163751896387 -999508.45499637478
 27847.156686024511 13981.768695857509 -999514.40510311804
 28389.382103827611 13263.452996127055 -999508.94132988236
 29058.83728317872 12506.425591552501 -999499.46137788019
 29645.717850274035 11680.081518713867 -999492.22463651909
 29984.441042672704 10767.16562050522 -999492.37187677377
 29954.094880672939 9764.0109276749863 -999503.58493128186
 29480.207488203279 8680.2439169034988 -999527.67381998769
 28535.96083315384 7537.4493037138218 -999564.34800232993
 27140.913671100647 6366.6360725218365 -999611.34284791793
 25356.023582848702 5204.7486525207914 -999664.93519555358
 23274.771023167632 4090.7473265715889 -999720.73641598993
 21011.20829292405 3061.8773550193732 -999774.55160307733
 18686.371380164033 2150.6522768143104 -999823.08145962842
 16414.705834396853 1382.8752956356138 -999864.31333870825
 14291.885690377887 776.80104209766637 -999897.56404521444
 12384.941947255249 343.36259784024185 -999923.24471185764
 10724.976852040289 87.288714762905798 -999942.48197193979
 9302.1805965483964 8.8908538198553337 -999956.7337425662
 8062.2988919203735 106.31490002566737 -999967.49348852318
 6903.3276738023642 378.09296756328945 -999976.10027076956
 5671.0553859231413 825.93040088503028 -999983.57835005608
 4152.7294172848078 1457.7571872086976 -999990.31484428386
 2070.763251378517 2291.0572988463077 -999995.23148663586
 -913.22522659685762 3355.8435535354492 -999993.95214857673
 -5148.6003338520022 4693.8596824304204 -999975.72950341343
 -10785.849530105652 6336.3150778155141 -999921.7552194515
 -17086.705264108838 8141.449371180207 -999820.86460793274
 -21517.902547366819 9082.0515107881838 -999727.21089821158
 45054.578649336181 19096.728441105835 -998801.98232961935
 41042.682582626345 18763.976742982239 -998981.18670133664
 35982.712934015966 17812.306247347085 -999193.65796429012
 31858.461098833905 16801.838353746072 -999351.15784410271
 29139.240418484849 15925.129278519231 -999448.49538397754
 27683.639507114422 15174.793012106562 -999501.5466524699
 27176.970427924331 14494.509283699132 -999525.54818723083
 27294.514735800469 13825.89204499368 -999531.81748981716
 27749.85289666551 13120.240317944887 -999528.7914603625
 28303.937294964264 12341.155514921382 -999523.17782738735
 28763.811051208224 11465.198258996466 -999520.48123222194
 28980.657473863692 10482.276560439097 -999525.00887696305
 28849.38808653651 9395.7786422609861 -999539.61009593715
 28309.12470807878 8222.017121622479 -999565.40150843281
 27342.997500062258 6988.6120009668875 -999601.68056581984
 25975.775146201078 5731.7411010122451 -999646.14051648544
 24268.433239099399 4492.5186409464905 -999695.38381668052
 22309.624915822133 3313.0074954290831 -999745.61995412153
 20204.750641287948 2232.443540750689 -999793.37077586248
 18063.844025996896 1284.1689764252935 -999836.01077828999
 15989.587089996839 493.59011482554371 -999872.03654942254
 14066.614639331399 -122.72910226232779 -999901.05274979887
 12352.82576579444 -556.88969166227332 -999923.54586211813
 10872.950860928831 -808.55888720450696 -999940.56081954273
 9614.0628568840821 -883.15131803971201 -999953.39383349929
 8522.2781403899608 -789.4968175940254 -999963.37306427024
 7499.490894949934 -537.14835186475568 -999971.73415450321
 6398.9106097289196 -133.42361932195686 -999979.51786081435
 5018.6936002905359 419.79266829681035 -999987.31816391659
 3095.2591227173416 1129.314104939876 -999994.57199557638
 304.76707876752863 2012.88756297755 -999997.92769819614
 -3699.1172085647313 3095.0737182864423 -999988.36845763132
 -9130.1838670987199 4373.9057272718655 -999948.75303249515
 -15600.149222736425 5680.9538704371107 -999862.17155533505
 -21017.861621973443 6422.1617246829292 -999758.4734982854
 45478.232090130223 17095.073012465906 -998819.04711747193
 40880.596652718879 17045.527846303041 -999018.63185716327
 35526.161973855618 16585.049646685267 -999231.11838234111
 31380.021524675714 15968.22005762679 -999379.96287563315
 28701.735040239026 15346.807823142006 -999470.20260501967
 27259.346614974213 14749.09634876818 -999519.58068815223
 26716.510298321991 14150.089071296119 -999542.89705682639
 26751.917481249478 13511.747203735426 -999550.78290128836
 27090.926003297482 12799.031924252764 -999551.03246912104
 27509.189893496579 11985.7677716938 -999549.69153230521
 27829.537943508047 11056.986283236582 -999551.52937314019
 27918.982554016555 10010.017939879432 -999560.06820700469
 27687.181216852234 8854.7927982922774 -999577.41703220003
 27085.575771573225 7613.2105627532592 -999604.12694728782
 26105.887134655193 6317.4084744792008 -999639.22142294864
 24776.793034624028 5006.9555261794494 -999680.46941174089
 23158.180222023482 3725.2631876090281 -999724.87270397926
 21332.993191669997 2515.6860501412989 -999769.2607422882
 19397.30783939836 1417.8430023235121 -999810.84919588885
 17449.587682948015 464.6154186781701 -999847.63640377112
 15580.20759929089 -319.87794653852393 -999878.57003201288
 13862.144207409738 -921.20520353120457 -999903.49151252874
 12343.441110162308 -1334.4800569475756 -999922.9263420942
 11041.59479926154 -1563.2916539518233 -999937.81771842879
 9939.5844718478638 -1617.9092875789859 -999949.29222939303
 8982.8003252018352 -1512.9710376115963 -999958.50924773735
 8075.81644469616 -1264.8629223556215 -999966.59009715868
 7077.8052863400835 -888.96579251490482 -999974.55688239809
 5795.8484675561267 -397.02266821608742 -999983.12511439016
 3977.1948513075554 204.76383928819595 -999992.06996499957
 1307.0020483096348 914.9680433529212 -999998.72728875291
 -2566.7680254043007 1727.791555505115 -999995.2132076656
 -7917.3472983505753 2601.5644758388275 -999965.2731340403
 -14537.482559313925 3389.5687666233739 -999888.5800049993
 -20425.665062106389 3810.0348212751187 -999784.11461746646
 45907.805919394246 15510.731910453058 -998825.25526303623
 40988.946470776747 15604.984752648907 -999037.73237955582
 35398.910792293456 15434.23273014263 -999254.0725835202
 31147.258115084602 15097.067390925045 -999400.78390408831
 28414.610065728313 14677.633911925634 -999488.45766099775
 26911.880586765586 14203.032238469916 -999536.90505079227
 26280.975241444547 13665.092821302207 -999561.19151282765
 26199.079541322033 13042.675267010827 -999571.65668753686
 26399.439988308539 12314.445729015384 -999575.62194898026
 26669.809922525536 11465.184714782854 -999578.54657758237
 26846.895574787337 10488.904492951026 -999584.52723145636
 26811.852748012428 9390.3822822421916 -999596.39118636912
 26487.378647455698 8185.5957935223068 -999615.63352815353
 25835.498229940335 6901.0885271742645 -999642.3870606682
 24854.857789305443 5572.2306374351856 -999675.54050801718
 23576.615911578319 4240.4859553185306 -999713.03955736267
 22058.477327157172 2949.9823227105812 -999752.3299209174
 20376.962526427622 1743.8226368636545 -999790.84736799193
 18618.411060459264 660.61151366926595 -999826.4441201844
 16869.513147126891 -268.39040184231618 -999857.6636165625
 15208.197858033593 -1021.1996644230557 -999883.82718651695
 13695.619833016233 -1586.0048146813169 -999904.95277607127
 12369.684688330448 -1961.0330465500981 -999921.56954938313
 11240.225668729759 -2153.5182571802011 -999934.50769839529
 10285.504044200534 -2177.961016763486 -999944.73091884749
 9449.3417489293406 -2053.9174524534988 -999953.24458877114
 8637.8357767917551 -1803.5489828906543 -999961.06674418063
 7714.4837313895941 -1449.1913329703568 -999969.1928180781
 6492.80574729612 -1011.2766964822282 -999978.41016342491
 4726.9822503175046 -507.29755085932766 -999988.69908014464
 2105.5229048348092 46.614499339773488 -999997.78229773382
 -1733.2525676810528 628.22746838723765 -999998.30058144825
 -7100.8480900402637 1191.8039276171246 -999974.07844393665
 -13852.927643550183 1646.3194683842862 -999902.68827916984
 -19952.13539401918 1874.1530723514647 -999799.17975735501
 46377.026083101991 14160.284114997203 -998823.6369877666
 41253.153637213669 14332.395344822789 -999045.9247495404
 35475.908542227357 14332.587828942476 -999267.75032482122
 31084.560958133658 14183.028630132405 -999416.12542970141
 28236.235205244317 13914.190554353787 -999504.43236768653