# OOMMF OVF 2.0
#
# Segment count: 1
#
# Begin: Segment
# Begin: Header
#
# Title: Oxs_TimeDriver::Magnetization
# Desc: Oxs vector field output
# Desc:  MIF source file: /mnt/gpfs/work/plgrid/groups/plggspinsym/MF/switching-obrazki/p-ap/Anisotropy.mif
# Desc:  Iteration: 34700, State id: 243050
# Desc:  Stage: 0, Stage iteration: 34700
# Desc:  Stage simulation time: 5.10916e-09 s
# Desc:  Total simulation time: 5.10916e-09 s
# meshunit: m
# meshtype: rectangular
# xbase: 1.0000000000000001e-09
# ybase: 1.0000000000000001e-09
# zbase: 3.4999999999999998e-10
# xnodes: 35
# ynodes: 35
# znodes: 5
# xstepsize: 2.0000000000000001e-09
# ystepsize: 2.0000000000000001e-09
# zstepsize: 6.9999999999999996e-10
# xmin: 0
# ymin: 0
# zmin: 0
# xmax: 7.0000000000000005e-08
# ymax: 7.0000000000000005e-08
# zmax: 3.4999999999999999e-09
# valuedim: 3
# valuelabels: Magnetization_x Magnetization_y Magnetization_z
# valueunits: A/m A/m A/m
#
# End: Header
#
# Begin: Data Text
 -0 0 -0
 0 0 -0
 -0 -0 0
 -0 0 0
 0 0 0
 -0 0 -0
 0 0 0
 0 -0 0
 -0 0 0
 0 0 0
 0 0 0
 -0 -0 0
 0 0 0
 25723.8447973211 35592.645497858437 -999035.25833441282
 23122.698212147632 35260.170305927371 -999110.63512375194
 20534.180663831743 34906.935615463233 -999179.59009899886
 18431.427566641716 34711.450714186183 -999227.40037849871
 16592.244220094981 34700.09033383699 -999260.02680111444
 14703.171408099848 34871.797568531751 -999283.63064991881
 12441.206703155829 35228.591592958153 -999301.83763973229
 9553.1051759704933 35739.45827021353 -999315.48036846134
 6469.2152250085892 36198.871083772487 -999323.66678000428
 0 0 0
 -0 0 -0
 -0 0 -0
 -0 0 0
 0 -0 0
 -0 0 0
 -0 -0 0
 0 0 0
 0 -0 0
 0 -0 -0
 0 -0 0
 -0 -0 0
 0 0 -0
 -0 -0 -0
 -0 -0 -0
 -0 -0 -0
 -0 0 -0
 0 0 -0
 0 0 -0
 -0 -0 0
 0 0 0
 0 0 -0
 0 0 0
 31469.813971426327 32851.238444083196 -998964.68753469642
 29259.245747905257 31796.675948495231 -999065.99778837955
 27401.302873098764 30253.762934058632 -999166.59193008766
 25405.748851227316 29928.428330629562 -999229.1214245942
 22850.843147236425 28985.587456394816 -999318.60519419319
 20517.694953375874 28368.574126923912 -999386.93617427582
 18582.255780651394 28087.708845812496 -999432.72929292021
 16858.481771944229 28068.932181475924 -999463.81957454421
 15093.915697262675 28286.436538467391 -999485.89345566998
 13034.88385483453 28772.603223866234 -999500.9900478404
 10498.773414280693 29609.996451473449 -999506.39010810689
 7709.5049907642187 30797.123693848098 -999495.92330583464
 5709.8160130236038 31353.723581712311 -999492.04199866403
 3494.5786581903199 32966.440738007172 -999450.34979486046
 706.5146726707485 34077.626436419145 -999418.93929096486
 -0 0 -0
 0 -0 0
 -0 0 -0
 0 -0 -0
 -0 0 0
 -0 0 0
 -0 0 -0
 -0 0 0
 -0 0 -0
 -0 0 0
 0 -0 -0
 -0 0 -0
 -0 0 0
 -0 0 0
 -0 -0 0
 0 0 -0
 0 -0 -0
 -0 -0 0
 36831.5943456963 29789.720832963158 -998877.37294957682
 34215.546424122651 28482.963631964558 -999008.51706361282
 31225.718634628734 27615.863540405062 -999130.78151794954
 28397.186001964099 25853.364977336918 -999262.32959444576
 26149.47202067625 24113.858730118827 -999367.16322389909
 24129.736243408464 22803.996816575476 -999448.71482133225
 22080.117010329795 21742.094449861346 -999519.7595654343
 20207.647844150059 21099.305576879873 -999573.14403338206
 18572.034634278411 20818.213774662821 -999610.76500044542
 17066.548342195012 20817.519551013142 -999637.6162427197
 15530.894466924155 21068.081730509661 -999657.40493893903
 13807.783800090527 21602.470454980215 -999671.2851616632
 11802.985351683717 22502.719474062957 -999677.10644640634
 9605.5061444952244 23814.973498486015 -999670.23627242923
 7450.6657942840584 25333.002169728035 -999651.30249517027
 4927.9804775271577 27219.755053270212 -999617.32675221935
 1715.1679368246821 29143.234578371506 -999573.77420441469
 -1561.1472265749612 30180.270226997436 -999543.25274515373
 -4815.0599124331602 31507.764363685576 -999491.90891314473
 -0 0 -0
 -0 -0 -0
 0 0 -0
 -0 0 0
 -0 0 -0
 0 0 -0
 0 -0 -0
 -0 -0 -0
 -0 -0 0
 0 0 0
 0 0 0
 0 0 -0
 -0 0 0
 0 0 0
 -0 -0 -0
 39539.012980891232 25989.698562156547 -998879.97378120723
 36376.391832080219 25161.485208345308 -999021.35001179471
 32733.957665208618 23049.639706994858 -999198.27968474303
 29541.177719492374 21057.92205632852 -999341.72470562579
 26881.535816266245 19204.056349910683 -999454.14464690071
 24756.209728386599 17666.746168032423 -999537.40108097938
 22959.511522216009 16500.441037628232 -999600.21822537878
 21324.215319790346 15663.235216014382 -999649.90916998673
 19842.87621412153 15166.183117164612 -999688.07492797868
 18501.353440762145 14963.88825000973 -999716.85089794383
 17231.440555572157 15004.027006364362 -999738.9442399313
 15938.168954571067 15265.529576947501 -999756.43952770357
 14529.565293728359 15767.192869291353 -999770.11725766154
 12946.255027243666 16555.790054846253 -999779.12575549877
 11185.038004582198 17663.991848411708 -999781.41526876518
 9235.4680265436873 19063.463758784284 -999775.62006674672
 6888.3157704392397 20794.152322958354 -999760.04837911809
 3940.6088064284941 22822.276809835745 -999731.77166850585
 408.22200456137983 24964.973153078761 -999688.24313896021
 -3741.9079541207193 27201.901180807843 -999622.95626751834
 -7430.7885345273835 28165.996741932464 -999575.6399639243
 -0 -0 -0
 0 -0 0
 -0 0 -0
 -0 -0 -0
 0 -0 -0
 0 -0 -0
 0 0 -0
 0 -0 -0
 -0 0 -0
 0 0 -0
 -0 0 0
 -0 0 0
 -0 0 -0
 40985.921702029562 23558.672326151223 -998881.94656849408
 38119.999992559715 22077.005690811464 -999029.26454648701
 34215.947961104066 19635.796094260193 -999221.5492156219
 30623.183238812682 17238.157771123449 -999382.34253211634
 27712.715128496395 15268.576111362858 -999499.31265796174
 25410.532978062703 13697.720996342157 -999583.25178710197
 23581.841078994734 12497.644470107309 -999643.78938401036
 22067.034662351012 11629.811917873019 -999688.84832029883
 20742.176371480036 11049.193916317769 -999723.80057352548
 19548.051197062119 10726.989020572299 -999751.37179248198
 18443.142674339568 10626.75052528133 -999773.43566508475
 17376.423510006378 10715.481428393348 -999791.59746607114
 16288.906709325916 10978.461942848344 -999807.05383168021
 15123.601257976972 11423.771543090214 -999820.37093105935
 13834.532591042986 12075.947682666299 -999831.37438047666
 12384.686887283329 12960.441086523488 -999839.31033818948
 10712.376241445822 14095.758913339718 -999843.26500502985
 8681.8166835222364 15524.477712130307 -999841.79581113707
 6130.0015286527005 17290.34209322407 -999831.7194166017
 2913.9229911992338 19423.857450452291 -999807.09280067903
 -1078.4594539891666 21963.073639022456 -999758.20092737069
 -5479.5676180309592 24542.760612121241 -999683.76361740287
 -8904.2913873664165 26129.906922541399 -999618.89816024783
 0 -0 -0
 -0 0 -0
 0 0 0
 0 0 -0
 0 -0 0
 -0 0 0
 -0 0 0
 0 -0 0
 -0 -0 -0
 -0 -0 -0
 0 0 0
 41965.674760581263 21975.611158469943 -998877.34715334338
 39243.093943154912 20126.584280951771 -999026.97670430818
 35399.005884998565 17284.935029923934 -999223.76943473751
 31670.63663322333 14590.45114571942 -999391.85983807722
 28556.642042240896 12400.957451021268 -999515.24973337434
 26105.651079361964 10738.89859950645 -999601.50612061028
 24194.191330536483 9509.6605142373392 -999662.04662514105
 22677.079227989358 8628.6908964754457 -999705.60455121007
 21423.936531001771 8030.6350239488229 -999738.22765993467
 20336.457968438302 7664.9509430691405 -999763.81060945522
 19351.728193935774 7494.7725697198612 -999784.64631141268
 18425.253984503684 7489.1179230332718 -999802.19200016803
 17517.040112014583 7624.3916449257931 -999817.4943247186
 16587.601635842311 7889.0089061731223 -999831.29327424464
 15598.799626282955 8285.1538035720005 -999844.00467106397
 14513.977198148674 8826.4566505817947 -999855.70865444734
 13291.973445850323 9533.6810527748603 -999866.20723349717
 11870.809431131691 10435.208490696901 -999875.08735201776
 10150.575720185749 11577.482435668602 -999881.45683025871
 8000.0510115367015 13026.040308865993 -999883.15390233719
 5269.2791449229653 14867.624191300225 -999875.58648473816
 1819.5522590355458 17202.66221500342 -999850.36762622301
 -2319.9630406402971 20017.299223594764 -999796.94213539327
 -6686.0428049136672 22959.506614518446 -999714.03805669781
 -10011.74003983934 24875.424045487012 -999640.42452270398
 0 -0 0
 0 0 0
 0 -0 -0
 0 -0 0
 0 -0 -0
 -0 -0 0
 0 -0 -0
 0 -0 0
 0 0 -0
 43037.284789452118 20634.704511033411 -998860.35114408948
 40236.055749655738 18712.540564669838 -999014.96517485951
 36350.674174107662 15703.607435929371 -999215.70504100155
 32568.418543648189 12797.271212811365 -999387.5764502337
 29354.214035815286 10420.938754484343 -999514.7493428071
 26791.375866621729 8620.5902684689954 -999603.87534392683
 24799.977402253873 7315.1126815707794 -999665.66923512181
 23248.382402793042 6397.7797987312852 -999709.24829637376
 22009.268666761218 5779.8092727664261 -999741.05942365143
 20977.464687159387 5395.0325341554144 -999765.392279236
 20074.403247032551 5195.0055376406517 -999784.99201165233
 19245.569412207205 5144.3742562593452 -999801.55204496009
 18452.07467724989 5216.4839492248566 -999816.13771498657
 17662.806675007869 5392.4327873449838 -999829.45892236813
 16850.045812025885 5662.0033882158741 -999841.99635430623
 15987.196365671229 6024.2313781720886 -999854.04844340531
 15046.138129897894 6486.9698074528687 -999865.75746451749
 13991.845185595323 7066.5302892114951 -999877.13866153266
 12773.529312963059 7789.8050991771261 -999888.07167872938
 11315.958432612993 8699.8362292019265 -999898.12577798986
 9517.0738679628594 9860.576358271097 -999906.09276015218
 7250.2256114174752 11361.161651021108 -999909.17499267054
 4378.5528819978599 13311.223358284891 -999901.81498353381
 807.75488216110114 15796.909371464621 -999874.8947675206
 -3410.9010677674178 18779.683947041711 -999817.82801906229
 -7856.2145505413609 21846.341293390942 -999730.47230992629
 -11308.992491931245 23801.006653139819 -999652.74909396144
 0 -0 0
 0 -0 0
 0 0 -0
 0 0 -0
 0 0 -0
 0 -0 0
 -0 0 -0
 44812.876073004911 18980.063616096231 -998815.07964347175
 41619.121717364156 17324.684787918119 -998983.33519857819
 37445.604234315804 14421.678323337223 -999194.59662163141
 33468.555775236047 11491.882352600307 -999373.70008136309
 30118.194419406438 9024.3345909563686 -999505.60566217196
 27449.620407992155 7118.9403870028364 -999597.8386467346
 25379.91360281067 5723.6893800894031 -999661.49238899583
 23784.245578306982 4743.7602900590673 -999705.85994110361
 22537.098709886814 4085.5976185667196 -999737.65912555275
 21530.640277088882 3673.2870060421847 -999761.44079066697
 20679.894208733036 3449.7819352660185 -999780.19633323129
 19921.964103308888 3373.1388896872309 -999795.84780108836
 19212.300347186203 3412.5323616680976 -999809.60294360551
 18519.274061919969 3545.1878056052833 -999822.21826264821
 17819.083658169031 3755.016018639687 -999834.17630739289
 17091.982015709949 4032.4380936200296 -999845.78990652144
 16319.386659121617 4374.5732533826085 -999857.26017663174
 15480.775702854073 4785.5179718509762 -999868.71358262771
 14549.401809413548 5277.1558540627566 -999880.22609364579
 13486.620878784242 5871.3231439955916 -999891.81345874153
 12236.055270390545 6603.5468531081369 -999903.33138777898
 10719.294009407497 7527.2142038416823 -999914.21521161951
 8833.5653346293293 8717.1313217060324 -999922.98690699134
 6454.2717168648987 10268.117398609924 -999926.45136614586
 3449.451014384088 12278.621153872136 -999918.66506744386
 -285.20937772162006 14807.657336357794 -999890.31995505374
 -4734.2226128280372 17768.410631871982 -999830.92106609175
 -9516.1305651848106 20691.450961400074 -999740.61991907598
 -13422.796954122203 22348.808035213609 -999660.12189210253
 0 0 0
 0 0 0
 -0 0 0
 0 -0 0
 -0 0 -0
 47756.819787350265 16264.229679264525 -998726.56968598708
 43994.164630533291 15485.476059171171 -998911.76462672744
 39175.726082139525 13078.613776853248 -999146.74214932683
 34707.753714856102 10362.277162036145 -999343.78221115004
 31030.720259815422 7947.819153069524 -999486.83161453763
 28155.394254324368 6014.8432923411592 -999585.4617963148
 25958.179834259929 4560.8785295375965 -999652.62530877732
 24290.458805067854 3518.5925374005342 -999698.75118337257
 23014.406794316998 2807.0919097393135 -999731.19252872968
 22013.868575258824 2352.7212327483239 -999754.89710886229
 21196.581967905524 2095.9147009281355 -999773.13029229001
 20492.530481200876 1991.1093046493661 -999788.02337206167
 19850.659715672227 2004.1109970006776 -999800.94761305582
 19234.916826923443 2109.2657752831824 -999812.76695816917
 18620.123829947275 2287.3054073195735 -999824.01412575145
 17988.238024189177 2524.1747624202662 -999835.01230680745
 17325.255297857591 2810.6620585293081 -999845.95598904963
 16618.490590288697 3142.5232754556337 -999856.96492946614
 15853.73849604578 3520.9805935140912 -999868.12213979452
 15011.831514385571 3953.7505079508592 -999879.49912552186
 14064.461922962824 4456.8655400888047 -999891.15770686511
 12969.529499580707 5057.3231833365708 -999903.10269884579
 11666.426001317939 5796.1155735611837 -999915.14617422083
 10071.389414160516 6730.8128387756678 -999926.62894524285
 8073.6756392915304 7935.5502301927099 -999935.91934894305
 5534.453119765777 9494.2902145580301 -999939.61231765745
 2292.86895773474 11480.778592860204 -999931.46488889132
 -1803.7499407859116 13908.702765417846 -999901.64239965857
 -6795.3825998176117 16614.906345153671 -999838.87084993045
 -12308.963832731466 19004.058396189139 -999743.63472534239
 -16931.707483200567 19727.307584444337 -999662.01819273515
 0 0 0
 -0 -0 -0
 0 -0 -0
 0 0 -0
 46549.796753925119 13387.133693580688 -998826.2617060279
 41868.48372520585 11623.849038278979 -999055.51207332173
 36688.815540198368 9274.6998847641316 -999283.69883447257
 32390.867272857573 7032.911118173256 -999450.53398280591
 29093.97233089216 5154.7076456683908 -999563.3895672136
 26634.976356352145 3690.7610246932268 -999638.4127861209
 24815.8847408769 2608.0647979722212 -999688.63645764068
 23463.384439491154 1846.2187944074158 -999722.99216673407
 22438.581850345006 1342.3914412440856 -999747.32209181914
 21634.195727414062 1041.3328781377843 -999765.41108455276
 20969.408644888841 898.23413453300827 -999779.71427536127
 20384.797352105677 878.15838035480112 -999791.82276850648
 19837.81046560657 954.19444302720626 -999802.75594183861
 19298.806494291926 1105.5297557110932 -999813.14947936882
 18747.579086673413 1315.9752436681324 -999823.38264692866
 18170.379522873573 1573.1110341710826 -999833.66748158098
 17557.349546028865 1868.0003321231579 -999844.11287544121
 16900.164153068014 2195.347145678897 -999854.77190565481
 16189.564386743126 2554.0397614592825 -999865.67842178897
 15412.511973237555 2948.1143164290761 -999876.87396831624
 14548.766241981866 3388.2095377129426 -999888.42049348936
 13566.823869303031 3893.4810584179859 -999900.3860862077
 12419.104038030431 4493.7474483319847 -999912.7822409129
 11036.16023928669 5231.3624021411561 -999925.41522585088
 9319.7113830804883 6161.7455420717461 -999937.58598805091
 7134.734650543508 7350.6149681556535 -999947.53063401114
 4302.6737907110755 8864.4192112202018 -999951.45335676102
 605.57689260334541 10746.165882416446 -999942.07492006989
 -4162.3495518997806 12959.657138576991 -999907.3567751454
 -9955.2688871186165 15266.525894824768 -999833.89910949091
 -15459.693577378497 16991.688334640789 -999736.10538083094
 -0 0 -0
 -0 -0 -0
 0 0 -0
 49699.519729819614 11135.973724353937 -998702.13168283342
 45503.509890497226 10409.068016993213 -998909.94683738274
 39724.391750067123 8376.3544377300823 -999175.56484654907
 34534.905042403996 6285.2560523026377 -999383.72804947605
 30525.6271222543 4481.7193623417688 -999523.93682210043
 27585.425561128905 3036.9443639474616 -999614.83645729371
 25467.7758598443 1936.4833174828602 -999673.76799889759
 23944.884991700608 1136.0130767128701 -999712.6346891009
 22836.79119155942 584.37962313217974 -999739.03568307718
 22008.272902282766 233.72150675283979 -999757.76130926632
 21359.693524683073 43.276236972344847 -999771.85478472977
 20818.520202307023 -19.990506450776639 -999783.27092273638
 20332.668521249616 17.733911010666752 -999793.26976946264
 19865.458136131117 135.70582950150526 -999802.6531055863
 19391.73043066428 317.2788735383765 -999811.91237403289
 18894.783542428999 548.89604335024228 -999821.32697198354
 18363.859891126056 819.51769889708874 -999831.03424560709
 17791.992726208784 1120.4677927629773 -999841.08214593597
 17173.976201135178 1445.6450646966407 -999851.47129550704
 16504.243978048289 1792.0568405360782 -999862.18973566196
 15774.41351900323 2160.6696655215296 -999873.24165852543
 14970.307142773867 2557.5730632955392 -999884.66771127004
 14068.214067209652 2995.4180724046964 -999896.55106092384
 13030.111711759777 3494.999395880277 -999908.99644317734
 11797.376298666037 4086.7243751009596 -999922.05726063938
 10282.431375760842 4811.473700134844 -999935.55858657009
 8357.8805907882397 5720.0021713897968 -999948.71238838509
 5843.9176976948784 6869.3533306895497 -999959.32947833464
 2499.9456364931793 8313.2220219068331 -999962.31959580793
 -1955.0367273808008 10079.64417546348 -999947.28791306331
 -7701.7827359818311 12116.372257420478 -999896.93272157176
 -14256.521993024528 14101.925609501375 -999798.92342148803
 -19434.755488257539 14749.441281914502 -999702.32782612997
 -0 -0 0
 0 0 -0
 48709.614309216689 8808.7581139525482 -998774.1382586644
 43634.2416968338 7589.0878202948616 -999018.74792097777
 37665.976959892396 5753.1212581312056 -999273.82422209263
 32714.62949612987 4013.4790449353768 -999456.67490036145
 29031.981278286668 2580.1782239296035 -999575.15312426095
 26407.360774900211 1466.537977342339 -999650.18909779878
 24566.212102996124 635.50771273127975 -999698.00307535776
 23275.237549002191 41.453785994224184 -999729.09410430852
 22357.272584091643 -358.27760205965006 -999749.98074506631
 21682.974806742659 -600.18249068366413 -999764.71651309438
 21159.290479553969 -714.19350289676481 -999775.86205811263
 20719.766068886762 -724.37546654532207 -999785.06018755562
 20317.365439221925 -650.04929291288659 -999793.36970072263
 19919.314041537345 -506.9688156757598 -999801.46224674745
 19503.383766386039 -308.32267214900565 -999809.74338060478
 19055.119655633065 -65.438637017827091 -999818.43258298363
 18565.66930182491 211.84925881686237 -999827.62066431576
 18029.930481802119 515.16207649572561 -999837.31487420294
 17444.807037736031 837.83009785282798 -999847.47674239951
 16807.34580445071 1175.4087505067528 -999858.05569654668
 16112.567988276483 1526.4284966195873 -999869.01900642354
 15350.757425322367 1893.3585271669988 -999880.37756521476
 14503.957305141197 2283.7446337563988 -999892.20405648637
 13541.283712810144 2711.4609987903768 -999904.63626020914
 12412.544984369071 3197.9676319373111 -999917.84749050078
 11039.463192395517 3773.4079360127994 -999931.94350664306
 9303.8756888779062 4477.2611813116846 -999946.69459400675
 7033.1853692863879 5357.9829593915128 -999960.91239716392
 3987.3868678582207 6470.0445032480575 -999971.11921799625
 -133.80658628475288 7862.8137969162217 -999969.07864943123
 -5598.0662119458229 9539.2262623781007 -999938.83053764934
 -12252.832411231686 11307.021755208123 -999861.00001796708
 -18269.628382452393 12456.629898940606 -999755.49663421616
 0 0 0
 -0 -0 0
 47096.20454605647 7101.6420651660601 -998865.1131145457
 41708.977742063551 5504.1863830734701 -999114.64062337356
 35864.453069256379 3781.7469855449658 -999349.50812805234
 31212.892730461244 2324.6886739503343 -999510.05555220204
 27837.627049159819 1182.426360147163 -999611.75882848364
 25480.481669130575 319.39511647734446 -999675.2687951565
 23861.471630591601 -312.82957555672658 -999715.22560641216
 22752.487306993979 -757.39219419947972 -999740.84175770718
 21983.372813298942 -1049.2986064920294 -999757.78581223637
 21431.394899457431 -1216.2053328637596 -999769.5815322909
 21009.135646695868 -1279.8492184727268 -999778.46456370375
 20654.666772173761 -1257.4570871255237 -999785.87884716818
 20324.385276793484 -1162.9980703887204 -999792.76192549476
 19987.997695752521 -1008.2266066893405 -999799.71165590151
 19625.010020290083 -803.47285258637351 -999807.08809903846
 19222.216452817043 -558.15496471261554 -999815.08033119608
 18771.782267609211 -281.00627287695659 -999823.75508185057
 18269.64524758637 19.965947340594781 -999833.0959034554
 17713.986589725562 337.76520986190855 -999843.03797834285
 17103.587042922671 666.90006202166603 -999853.50054624118
 16435.852102536839 1004.0599467627594 -999864.41812342079
 15704.305959717811 1348.9401725033333 -999875.76985080226
 14895.25599334469 1705.1912334058047 -999887.60551961535
 13983.26380423489 2081.4635437219799 -999900.06292773923
 12924.869728755559 2492.5352778022911 -999913.3637522721
 11649.90711085049 2960.5195849598458 -999927.75488436955
 10049.720373525235 3516.1678455068859 -999943.31823563692
 7962.3564687234802 4200.1997230220277 -999959.47877989127
 5157.834192239462 5064.0577987447696 -999973.87569128838
 1337.1455672194354 6167.0978056913564 -999980.08927497501
 -3806.1302045727925 7558.5887168144891 -999964.18991355668
 -10282.117581618619 9206.3450805425 -999904.7560984476
 -16540.804876887585 10747.087776110042 -999805.43201082735
 -0 0 -0
 50888.244075128598 6428.3128903018778 -998683.66533569305
 46399.291699888148 5485.7382984441892 -998907.90987211105
 40092.015312844465 3765.0810481980266 -999188.89829343837
 34373.063484182647 2240.067125158509 -999406.56121819955
 30002.136319312205 1051.706497349903 -999549.28129118332
 26889.448191802749 155.34510734307219 -999638.4013451254
 24749.249791847364 -508.63938315671868 -999693.56100793125
 23305.196119968386 -989.29622373865038 -999727.90754624421
 22337.955359042357 -1323.5481644931333 -999749.60063539573
 21685.362824972039 -1538.623068287945 -999763.66091101896
 21230.931971761616 -1654.6733831939594 -999773.22907927737
 20891.888003689997 -1686.8880701821092 -999780.31758195744
 20609.620730351366 -1647.1039285655008 -999786.24244485365
 20342.786336640413 -1545.0298156625649 -999791.87030448008
 20062.522423556271 -1389.1607503154787 -999797.76226315578
 19749.175005425353 -1187.4190836600035 -999804.26090436568
 19390.006592427755 -947.53643899011854 -999811.54715228337
 18977.505022419438 -677.18996055006812 -999819.68160107802
 18507.978535668721 -383.90817773910817 -999828.63899021945
 17980.220067602408 -74.773449794732613 -999838.33998064511
 17394.022585351933 244.05151422094383 -999848.68276012572
 16748.371127416842 567.93758459505909 -999859.5748961342
 16039.076662393725 894.51601297837874 -999870.96560552274
 15255.599289192329 1224.490810907625 -999882.8767973684
 14376.670510815742 1562.532887289399 -999895.42945049994
 13364.22872165118 1918.2734723049855 -999908.85465504345
 12155.005513510996 2307.4691635602294 -999923.46278454014
 10649.13584444522 2753.4636514451463 -999939.50534204172
 8695.6726336607189 3289.1221559390301 -999956.78254257143
 6077.2090871252567 3959.2974457536689 -999973.69540075748
 2503.2992044885086 4823.1988194151863 -999985.23501411814
 -2353.9799996309739 5953.0725320426918 -999979.5096428676
 -8673.6052388198168 7410.0872722037329 -999934.92747217289
 -15835.436700875693 9075.4568768999925 -999833.42363964219
 -21439.62984530392 9918.422475266294 -999720.94464790425
 50589.331163256829 3820.5231748010397 -998712.23241488577
 45271.100658458417 3142.8768232044081 -998969.79422325187
 38741.608498880159 2004.4968200339601 -999247.25156660692
 33199.828786666803 925.77912582604472 -999448.30496706825
 29061.606399916152 57.809695524396624 -999577.6206435872
 26152.996405025136 -604.59584678382191 -999657.76906044234
 24177.784759090377 -1097.8540963619648 -999707.07181680284
 22865.84383038152 -1456.0573471105693 -999737.48208363506
 22006.146877685238 -1705.1567593824388 -999756.38129497517
 21443.464752132586 -1863.7779789511858 -999768.32523893716
 21066.417721535407 -1945.1606328317177 -999776.18615092768
 20795.757212088229 -1958.9249656059969 -999781.82574747538
 20575.164461618817 -1912.4568703291025 -999786.47976260236
 20364.640263387158 -1811.9477173742296 -999790.97729095968
 20135.970916532533 -1663.150588628009 -999795.86746763869
 19869.663319228868 -1471.8906137955207 -999801.49530674412
 19552.858645544729 -1244.3509435419867 -999808.05023240182
 19177.817956811785 -987.14586347514341 -999815.60141931172
 18740.69644045717 -707.19825472860487 -999824.12761823041
 18240.353533173067 -411.44063377600298 -999833.54625637061
 17677.016862149747 -106.370782037512 -999843.7436720361
 17050.590455718007 202.50844182672705 -999854.60760824732
 16358.416814513801 511.32976844029844 -999866.06140082108
 15592.211751992969 818.56234538771628 -999878.09901425859
 14733.841615649277 1125.7627230849921 -999890.81732433988
 13749.448493812133 1438.4040920592759 -999904.43726377375
 12581.339307630898 1766.8447096691211 -999919.29082351364
 11136.992933100804 2127.5460015227295 -999935.71840214788
 9274.9979672965273 2544.6331514667208 -999953.74855781754
 6789.5302521412941 3051.6687070065036 -999972.29441472911
 3401.0046406731253 3692.4441475739563 -999987.39943243831
 -1221.3964264585295 4515.4182867521895 -999989.05953438568
 -7327.1039292826727 5540.4038725903947 -999957.80784638016
 -14625.267762199926 6629.2689037159817 -999871.06885672337
 -20998.46658551279 7248.6320737171409 -999753.23041944543
 50159.496246368821 1483.1602974417151 -998740.11893577315
 44480.983443859936 1118.938751212831 -999009.60460244713
 37832.991434038224 494.35619449680814 -999283.95382448961
 32378.480177263824 -156.1787326327827 -999475.66735244426
 28381.578835473265 -717.11790106283354 -999596.90461941808
 25606.759990954077 -1164.0711333876723 -999671.41540666367
 23743.801590011572 -1506.5241987818208 -999716.94107426866
 22524.098980732662 -1760.4772190438664 -999744.75026632042
 21741.59808742399 -1939.705822771474 -999761.7418434883
 21245.75576438395 -2054.2070640562897 -999772.17309511977
 20928.707915810759 -2110.8159480351615 -999778.74234302854
 20713.54690521627 -2114.2492624224715 -999783.21596467204
 20545.31571957995 -2068.0670108740646 -999786.78381984099
 20384.620622126007 -1975.4422066020511 -999790.26043974876
 20203.28615687658 -1839.7330478367246 -999794.20012859441
 19981.472773561134 -1664.8687006725117 -999798.96427132247
 19705.746521603898 -1455.5539462877477 -999804.76339970285
 19367.726611072459 -1217.299410051271 -999811.68694312894
 18962.994964692702 -956.28454963428101 -999819.72892208374
 18490.046176912951 -679.07266568084594 -999828.81387400022
 17949.058445010294 -392.20083236383385 -999838.82575115329
 17340.313454672527 -101.6796509479921 -999849.64029125031
 16662.040832851184 187.56722674413754 -999861.16096877167
 15907.455068333611 472.29254085394871 -999873.35688726336
 15060.631394659866 751.53439455819432 -999886.29982515913
 14090.78783314851 1027.2490420003601 -999900.19224802975
 12944.368486272535 1305.0034182259933 -999915.36656387581
 11534.30039674762 1594.7558089981098 -999932.20603612298
 9726.0394340493767 1911.6707110106431 -999950.87362930982
 7321.4472764703432 2276.5179890377613 -999970.60650582309
 4046.203476447527 2713.9770533840815 -999988.1312125565
 -439.08898436824268 3243.756184833202 -999994.64260898763
 -6439.2656625087529 3852.2816920985047 -999971.84749546438
 -13819.340453028857 4430.7578362367867 -999894.69156228646
 -20538.549158725498 4739.7705513746678 -999777.82660627889
 49816.267348389032 -197.49354262796447 -998758.37944108131
 44006.482793962205 -377.25158794897033 -999031.1742650196
 37294.855103326816 -678.03953132622917 -999304.07486671233
 31866.951801999341 -1009.960118826333 -999491.60945122852
 27935.762306108747 -1315.2433841621796 -999608.85516246641
 25231.823706906918 -1572.7946927639255 -999680.38961924112
 23432.928171308493 -1780.2178869506299 -999723.82621481665
 22269.080929970376 -1940.8675111314665 -999750.12931623997
 21536.256276247121 -2058.3244922367585 -999765.94909303088
 21086.364050814886 -2134.8858853989468 -999775.37852928403
 20813.459352659109 -2171.61602689039 -999781.01802025002
 20641.827738098174 -2168.8516988585111 -999784.5823125795
 20517.042216999034 -2126.760693948695 -999787.24130067613
 20399.688470329937 -2045.829710355222 -999789.81155596382
 20261.151721208887 -1927.2470811573353 -999792.86427220446
 20080.852327658362 -1773.1652829384034 -999796.7869795711
 19844.446358315017 -1586.8344769317457 -999801.82031494356
 19542.58780961837 -1372.5991814424665 -999808.08320056612
 19169.964253004153 -1135.7609488837909 -999815.59425606381
 18724.347151058926 -882.31594365793001 -999824.29473500105
 18205.467942156924 -618.59184254968409 -999834.07537507906
 17613.509907600728 -350.8114954156685 -999844.80855782295
 16947.030439972525 -84.621087037904331 -999856.38518666208
 16200.049435307261 175.38863642786905 -999868.75520596199
 15357.999190572113 426.1408875978077 -999881.9681666462
 14392.07530763777 666.50565642242293 -999896.2065827382
 13251.422245556038 897.70397390313883 -999911.79307779216
 11852.445738318109 1123.6779598065859 -999929.12592736445
 10064.730499932082 1351.3261563107599 -999948.43622938008
 7694.0607706905412 1590.2278132225531 -999969.13582588092
 4467.0020542278316 1850.7382889927551 -999988.31026189157
 34.7114853062522 2137.8948738092063 -999997.71409769787
 -5940.4426800967203 2437.2731881947757 -999979.38520760054
 -13380.645226124216 2694.3621974793182 -999906.84503391676
 -20239.559612026984 2818.536755168805 -999791.18623704161
 49614.47550152558 -1496.974882057526 -998767.32169555454
 43772.183229541624 -1556.526443600744 -999040.3261133905
 37038.536199868082 -1630.3239052226465 -999312.50811752328
 31612.477973276065 -1711.592419255302 -999498.73521069519
 27697.358258720691 -1796.3787735817707 -999614.74047194305