# OOMMF OVF 2.0
#
# Segment count: 1
#
# Begin: Segment
# Begin: Header
#
# Title: Oxs_TimeDriver::Magnetization
# Desc: Oxs vector field output
# Desc:  MIF source file: /mnt/gpfs/work/plgrid/groups/plggspinsym/MF/switching-obrazki/p-ap/Anisotropy.mif
# Desc:  Iteration: 32500, State id: 227650
# Desc:  Stage: 0, Stage iteration: 32500
# Desc:  Stage simulation time: 4.78532e-09 s
# Desc:  Total simulation time: 4.78532e-09 s
# meshunit: m
# meshtype: rectangular
# xbase: 1.0000000000000001e-09
# ybase: 1.0000000000000001e-09
# zbase: 3.4999999999999998e-10
# xnodes: 35
# ynodes: 35
# znodes: 5
# xstepsize: 2.0000000000000001e-09
# ystepsize: 2.0000000000000001e-09
# zstepsize: 6.9999999999999996e-10
# xmin: 0
# ymin: 0
# zmin: 0
# xmax: 7.0000000000000005e-08
# ymax: 7.0000000000000005e-08
# zmax: 3.4999999999999999e-09
# valuedim: 3
# valuelabels: Magnetization_x Magnetization_y Magnetization_z
# valueunits: A/m A/m A/m
#
# End: Header
#
# Begin: Data Text
 -0 0 -0
 0 0 -0
 -0 -0 0
 -0 0 0
 0 0 0
 -0 0 -0
 0 0 0
 0 -0 0
 -0 0 0
 0 0 0
 0 0 0
 -0 -0 0
 0 0 0
 28422.012951018954 32807.648397170691 -999057.47952080297
 26076.317135898837 32566.358115255331 -999129.34998614539
 23667.92203708184 32315.271661205097 -999197.45430215576
 21723.371642250648 32226.106325890276 -999244.50120857067
 20042.310882562979 32325.520237614972 -999276.42147498636
 18314.070633579333 32607.970854425392 -999300.41281567828
 16208.231471890023 33067.502478823655 -999321.6867017179
 13439.33724263415 33664.152629717704 -999342.83859054174
 10344.037431339837 34184.377326610156 -999362.01110328932
 0 0 0
 -0 0 -0
 -0 0 -0
 -0 0 0
 0 -0 0
 -0 0 0
 -0 -0 0
 0 0 0
 0 -0 0
 0 -0 -0
 0 -0 0
 -0 -0 0
 0 0 -0
 -0 -0 -0
 -0 -0 -0
 -0 -0 -0
 -0 0 -0
 0 0 -0
 0 0 -0
 -0 -0 0
 0 0 0
 0 0 -0
 0 0 0
 32424.947918351543 30393.272791062744 -999011.94773713313
 30575.755181114666 29508.087518156743 -999096.79008899094
 29224.261344993378 28083.229396784503 -999178.29979212792
 27891.736555744665 27600.742867309316 -999229.82843041536
 25728.89838929812 26566.703354908201 -999315.88302224292
 23634.517728980692 25916.592154784063 -999384.68060241989
 21888.275939923707 25646.192133182973 -999431.42646479036
 20339.151530267522 25662.99604187658 -999463.72097699647
 18740.862387173729 25925.241356073697 -999488.19999918679
 16830.862612919878 26449.579068039246 -999508.45010476478
 14392.474930084114 27304.113322558605 -999523.55753181537
 11572.154019341739 28494.09628977305 -999526.97398718644
 9427.6136254597823 29088.075080134728 -999532.39266642171
 7187.4473300410527 30899.812283997988 -999496.64441742457
 4387.2282748632097 32191.067796090018 -999472.10435419949
 -0 0 -0
 0 -0 0
 -0 0 -0
 0 -0 -0
 -0 0 0
 -0 0 0
 -0 0 -0
 -0 0 0
 -0 0 -0
 -0 0 0
 0 -0 -0
 -0 0 -0
 -0 0 0
 -0 0 0
 -0 -0 0
 0 0 -0
 0 -0 -0
 -0 -0 0
 36487.698855471484 27966.863254846317 -998942.6922461153
 34367.057629875402 26818.540711387457 -999049.3837763858
 32032.294255413311 25807.038466116959 -999153.60625398497
 29689.90299713744 23998.926980379976 -999271.01487224735
 27928.332320721693 22212.661445302623 -999363.1001419354
 26430.498325570625 20753.828796020058 -999435.19417147187
 24788.50023776677 19522.306395175845 -999502.08094279387
 23212.796746016502 18746.835369274715 -999554.76199699321
 21813.283555362399 18380.853437436712 -999593.07965163758
 20511.463966648236 18331.055137289979 -999621.55452125892
 19154.74990623882 18552.743847572649 -999644.38239393686
 17579.034752766434 19064.813994359727 -999663.6986529628
 15667.540269940546 19943.702045237282 -999678.33673168125
 13480.139603622121 21255.143300740339 -999683.20217933634
 11283.806064660801 22840.334328902893 -999675.44475616619
 8763.7148753110287 24873.266178956084 -999652.19848263974
 5547.9576306772833 26944.227484168066 -999621.5427707677
 2237.4639111427214 28120.687972293617 -999602.03114199976
 -1076.0389202368808 29676.45680723789 -999558.97777550388
 -0 0 -0
 -0 -0 -0
 0 0 -0
 -0 0 0
 -0 0 -0
 0 0 -0
 0 -0 -0
 -0 -0 -0
 -0 -0 0
 0 0 0
 0 0 0
 0 0 -0
 -0 0 0
 0 0 0
 -0 -0 -0
 38604.058696186854 25069.144282496225 -998940.07060339942
 35996.934516369591 24099.429360134462 -999061.27850594837
 32870.707776282143 21931.687530488245 -999218.95380959974
 30208.084593340358 19784.107649743743 -999347.8176839659
 28030.904333928178 17754.075797207086 -999449.37900566473
 26374.853698229159 16035.711775116421 -999523.49799304979
 25043.35331682528 14658.578670688132 -999578.88959601591
 23817.05280680145 13601.090643304778 -999623.80840439687
 22673.179179504921 12906.479446414782 -999659.61693678179
 21611.909981565335 12544.225210211456 -999687.73512573645
 20579.652873823481 12460.368168218572 -999710.56667052675
 19487.45245154501 12626.215009720276 -999730.37259626994
 18240.716880368323 13054.110191164025 -999748.40157652006
 16771.198148820396 13791.899073134011 -999764.22742195055
 15071.33591406762 14887.044738737295 -999775.59018647403
 13153.261288756619 16331.302629382581 -999780.1159614533
 10843.085822106517 18160.205824836146 -999776.29218453367
 7925.1932486867936 20313.421696959427 -999762.24984289752
 4403.1077433726205 22612.240520788368 -999734.61439565581
 228.80002139004901 25036.23609691445 -999686.51813088392
 -3546.6380420028022 26125.591259905239 -999652.37699908426
 -0 -0 -0
 0 -0 0
 -0 0 -0
 -0 -0 -0
 0 -0 -0
 0 -0 -0
 0 0 -0
 0 -0 -0
 -0 0 -0
 0 0 -0
 -0 0 0
 -0 0 0
 -0 0 -0
 39345.725657722127 23640.903972919437 -998945.95526074921
 37085.767862707391 21963.125694088405 -999070.70166819473
 33726.4368567333 19322.449119236553 -999244.29966699518
 30610.77532887302 16705.773375512679 -999391.76380921388
 28170.961964032347 14484.306611184995 -999498.17496782576
 26333.796540205181 12648.202377155698 -999573.18598310021
 24965.901731992424 11179.922148522826 -999625.78652786941
 23900.815232785746 10038.403388787121 -999663.93427422002
 22990.749064673306 9186.6390040980768 -999693.468579871
 22162.106551001223 8611.5022628458501 -999717.30157179898
 21373.187673152384 8288.0713209584683 -999737.21283268568
 20577.786264222457 8187.2028401979833 -999754.73213289527
 19720.370549566745 8293.7700268408171 -999771.13399224007
 18744.410606917732 8615.6469412997576 -999787.1862045353
 17603.178303736062 9181.1032516283012 -999802.8983038055
 16263.317637937362 10024.351821289109 -999817.49178036011
 14676.950299198483 11171.492344199884 -999829.87797360716
 12723.736545587008 12661.219161717587 -999838.88705013762
 10240.593647466554 14525.550866252715 -999842.0568338678
 7077.9022005272873 16788.807583919319 -999834.00584314461
 3103.2897780718276 19480.04161762281 -999805.4298567943
 -1359.6134153015544 22222.997139155395 -999752.11420107225
 -4912.6992912502747 23973.362570328249 -999700.52679427236
 0 -0 -0
 -0 0 -0
 0 0 0
 0 0 -0
 0 -0 0
 -0 0 0
 -0 0 0
 0 -0 0
 -0 -0 -0
 -0 -0 -0
 0 0 0
 39628.261499369 23071.25816798057 -998948.1057277621
 37498.101908847224 21031.723434201202 -999075.35199434322
 34212.694554867674 17959.813838515052 -999253.18944608897
 30967.321395803468 14972.396522918649 -999408.25109057873
 28300.760848467897 12465.819842008375 -999521.72076001647
 26298.120972037566 10476.224493271206 -999599.24847596127
 24842.234090705999 8915.8968003245136 -999651.62441203918
 23782.559828276699 7703.8490532730411 -999687.47144183947
 22977.560105549561 6776.1488934447516 -999713.01658914576
 22313.244550011721 6087.5838112637284 -999732.49444088398
 21714.724315335021 5610.6244168323028 -999748.46418564813
 21132.66566002828 5323.4313255262023 -999762.50755918201
 20526.981747971935 5208.8047190133311 -999775.7305384631
 19859.729838816354 5259.3513390554699 -999788.94290456211
 19094.509741621092 5481.0916518290614 -999802.65919431904
 18197.138169191265 5892.6416007312346 -999817.05373404024
 17131.593557108972 6520.5554158323484 -999831.98131449218
 15844.526434765561 7396.5545172137827 -999847.10929388192
 14244.028662398274 8564.3208731953509 -999861.87048784166
 12200.375389848346 10081.775856899767 -999874.74647373601
 9558.3384508296404 12027.205295607369 -999881.98528568202
 6163.225487766068 14492.975711635379 -999875.97646238562
 2014.9701702464949 17465.363947516911 -999845.43853407365
 -2448.6017224660809 20607.977325228265 -999784.63461896009
 -5927.7160721445161 22748.738796161528 -999723.64034534642
 0 -0 0
 0 0 0
 0 -0 -0
 0 -0 0
 0 -0 -0
 -0 -0 0
 0 -0 -0
 0 -0 0
 0 0 -0
 40070.974884411669 22703.141771255083 -998938.87917405972
 37817.221379849558 20623.248613177435 -999071.83895040618
 34466.145377205226 17405.177671009773 -999254.29426801973
 31157.678414380287 14201.903410704077 -999413.58056379179
 28380.386514471062 11478.074389603953 -999531.29389209021
 26246.440808301093 9310.5135422322182 -999612.14412514819
 24693.386431335239 7630.4249619858938 -999665.95084630756
 23591.748118739491 6335.0871308283413 -999701.60352564545
 22807.381964926397 5337.6179085812437 -999725.62894174515
 22224.121706877471 4574.2855867056078 -999742.54902236164
 21751.078520207808 4001.6632727808151 -999755.40872468345
 21323.666313092308 3592.0282302313467 -999766.17195630353
 20897.138766227366 3327.2750379886074 -999776.09434923308
 20438.335402103403 3196.4449239469932 -999786.00569613848
 19919.937644540281 3196.2834394233887 -999796.46921581635
 19317.197491574592 3332.174900420941 -999807.85278547602
 18605.044481148623 3617.9548235255038 -999820.36522704875
 17752.889894262993 4074.9182047479048 -999834.10120980907
 16715.256042624547 4732.2754020066959 -999849.09150578768
 15420.936482467287 5631.246121376259 -999865.23281146446
 13767.985186033948 6830.2055709880469 -999881.88846271997
 11624.66322550595 8410.7982105127194 -999897.05754060263
 8842.2824348133217 10475.759850007891 -999906.031833446
 5307.86379762667 13110.102007840238 -999899.97090071463
 1051.3039986904498 16285.018235139862 -999866.83760437998
 -3522.1076530854625 19601.349628947821 -999801.67125805689
 -7156.5691279606008 21838.333946960123 -999735.90047008824
 0 -0 0
 0 -0 0
 0 0 -0
 0 0 -0
 0 0 -0
 0 -0 0
 -0 0 -0
 41297.257003534054 21915.265778153847 -998906.53100771003
 38605.842765266578 20159.615435340558 -999051.13923656743
 34928.15335365085 17100.913089342328 -999243.50529528828
 31394.370931657035 13916.287883948084 -999410.19126549654
 28455.771896069382 11124.034278085175 -999533.15348075319
 26191.2798012024 8853.8350574610631 -999617.74017228733
 24533.858817221324 7072.1975475943163 -999673.98375339562
 23365.708089520649 5692.7178648748049 -999710.77649927628
 22559.9341924529 4625.3390708239431 -999734.79263638332
 22001.71444558381 3796.675327637809 -999750.72383965366
 21596.369449030393 3153.3297570240056 -999761.798299007
 21270.901197885712 2659.1300710591918 -999770.21249359834
 20972.304732037297 2291.0871760904374 -999777.43190861144
 20663.373909703372 2035.4596851816855 -999784.41770340549
 20317.701424913474 1885.3905644143263 -999791.79648126126
 19915.305226709199 1840.0962402772145 -999799.97732724191
 19438.998091467834 1904.7375904316068 -999809.23046744859
 18870.719968346162 2090.3660889587541 -999819.74690315581
 18186.741325320014 2414.0752547550055 -999831.69317672169
 17351.188207993884 2900.2231844288162 -999845.2505129237
 16308.879084277258 3583.4876265881585 -999860.57982072909
 14979.669907554249 4513.2404608387233 -999877.61258566217
 13255.312151788426 5758.242787718088 -999895.56421646185
 11001.656250821847 7407.2083577585981 -999912.0445439606
 8073.6404234348256 9555.4378755257603 -999921.75190727785
 4351.6259805845311 12264.802521794578 -999915.31539947237
 -166.00726742076012 15458.336572559559 -999880.49899575312
 -5112.6081947129569 18678.289218503596 -999812.47379161918
 -9242.6663970825521 20668.901235070934 -999743.65196264524
 0 0 0
 0 0 0
 -0 0 0
 0 -0 0
 -0 0 -0
 43815.719256825796 19846.561271398659 -998842.47844778188
 40496.17983448015 19072.17000602082 -998997.65352581046
 36133.516375846993 16604.68294597957 -999209.01391980052
 32069.080032379999 13715.969825630062 -999391.53802582249
 28763.663153637539 11043.048312279652 -999525.23868382466
 26252.890142119784 8792.9027691666906 -999616.66183596489
 24429.199291961366 6981.7884195703873 -999677.18232058187
 23152.121249186031 5553.5511083683177 -999716.52849782875
 22285.724126410671 4433.3936826863392 -999741.81242989737
 21710.707903929608 3551.4912723326443 -999757.98675081984
 21328.241126513523 2852.0799605387565 -999768.45907957503
 21060.093334688547 2294.7088301387753 -999775.57820748922
 20846.955809451483 1852.1728141342901 -999780.96295605937
 20645.816654548886 1507.5905868877826 -999785.71575377567
 20426.647313666406 1251.6710315364746 -999790.57076927449
 20168.843763176061 1080.7766629695261 -999796.00402435171
 19857.784528013752 995.84905450838312 -999802.31880022131
 19481.522605665614 1001.942780778382 -999809.71508964105
 19027.271797493544 1108.1540307061498 -999818.35096310778
 18477.268359612481 1328.0188636197747 -999828.39873643545
 17803.784003989429 1680.7113349446038 -999840.0874562629
 16963.604607909092 2193.3337021199914 -999853.70200143661
 15892.590687623155 2904.1202612166235 -999869.48730659042
 14500.756941521508 3865.8098416776743 -999887.38544017577
 12668.679723061114 5146.9949663857251 -999906.50212751946
 10247.158180996628 6827.2238969307982 -999924.18950792216
 7064.0186470690287 8978.8869850780939 -999934.73748493358
 2953.5993036548748 11619.028385679609 -999928.13463294762
 -2141.9420448312794 14593.526568528909 -999891.21461615525
 -7872.8838956255759 17315.005823814921 -999819.08777162666
 -12804.024861023663 18390.129016594088 -999748.89852508018
 0 0 0
 -0 -0 -0
 0 -0 -0
 0 0 -0
 42866.629209712766 17485.349913204784 -998927.78249411483
 38489.68854169597 15794.166730145242 -999134.16925519251
 33639.00020536784 13396.56245484039 -999344.25989224401
 29654.237135947624 10999.862297992575 -999499.68946934165
 26666.564708473965 8889.4569785933218 -999604.85787198669
 24526.893816063406 7135.7758754537508 -999673.70285628259
 23045.950995111471 5717.8434885495717 -999718.05545792333
 22053.986673510171 4582.6673320844948 -999746.27822859527
 21411.580762871719 3672.4362100372077 -999764.0008629628
 21007.786291095425 2936.2756889075745 -999775.00028767774
 20756.0316450803 2334.411593071557 -999781.84504063823
 20590.186927428538 1838.3991249492778 -999786.30941364216
 20461.134196152077 1429.5775384082995 -999789.62701933866
 20333.688457583456 1096.9990220714933 -999792.64735586813
 20183.672776939125 835.47097353178276 -999795.93985047063
 19995.050895262862 644.03061137778252 -999799.87155643664
 19757.09887591904 524.94372387545877 -999804.67166246718
 19461.511303155123 483.17327798920002 -999810.49010368995
 19099.281400729156 526.27555752234184 -999817.45358040894
 18657.142029586808 664.76697082940518 -999825.71938121424
 18113.459853022294 913.10459679961946 -999835.52087938355
 17433.58191489138 1291.3780278690951 -999847.18960669462
 16564.704628123563 1827.6116730526512 -999861.12555502192
 15430.167759306001 2560.2089476500682 -999877.67014423513
 13923.052708553852 3539.4215798288647 -999896.80522449687
 11899.185236978161 4825.7559527776166 -999917.55733669386
 9171.1348212359771 6481.594071207428 -999936.93762376194
 5511.9117952077859 8547.9800973580677 -999948.27409452375
 703.18461118422829 10988.873972234704 -999939.37325231126
 -5232.7932291636616 13562.690866349514 -999894.33006267447
 -11007.858149442587 15552.210833173171 -999818.46142045315
 -0 0 -0
 -0 -0 -0
 0 0 -0
 45847.702139636094 15914.047071667434 -998821.67142804642
 41947.210426370664 15146.189817057117 -999005.0172403896
 36445.828480966426 13114.895440624825 -999249.56897859997
 31501.264796516734 10965.575580823657 -999443.558420585
 27732.582708043654 9030.7034199133523 -999574.58463692595
 25044.009238014911 7388.4478022664816 -999659.04609539732
 23197.856133987738 6032.7572010567937 -999712.69138254889
 21970.86172784153 4925.6189917015681 -999746.47761944367
 21184.268531228867 4020.6290644205933 -999767.50362707977
 20701.450811472987 3274.1855378975515 -999780.34069657722
 20419.405692783886 2650.2576808689573 -999787.98952846928
 20260.959644685474 2121.7429740441189 -999792.47432706191
 20168.870350617042 1670.0150662992774 -999795.19288625242
 20101.500906440961 1283.6211859490897 -999797.12040891545
 20029.524247847519 956.72415076097218 -999798.93120432191
 19933.18234143878 687.62413206053998 -999801.0779224016
 19799.803481370025 477.54864438417371 -999803.85062740743
 19621.368750533187 329.7849488489328 -999807.42802313843
 19391.996921265316 249.17888605881478 -999811.92649682309
 19105.201620287942 242.00648141460954 -999817.44968964753
 18750.812831445215 316.26281352446631 -999824.13803428086
 18311.437469274781 482.42452611071423 -999832.21518632071
 17758.365323591279 754.72537699732084 -999842.02294694493
 17046.719878101303 1152.867917596119 -999854.02946478256
 16109.510570924722 1703.9197304246095 -999868.78155421827
 14850.01188976744 2443.835279832319 -999886.74599476461
 13131.900968902941 3417.6306965506856 -999907.93225044711
 10767.457640674356 4676.5181436092316 -999931.09364296135
 7508.7143858618938 6268.7699171523282 -999952.1597216524
 3063.6833842311944 8217.5777577292702 -999961.54189044517
 -2775.7851022808231 10466.818978684498 -999941.36863994855
 -9588.6784360681686 12698.285509893993 -999873.39738136786
 -15177.466890365438 13631.242953666027 -999791.89520336187
 -0 -0 0
 0 0 -0
 45116.366578072557 13927.287740413993 -998884.65005874855
 40252.334746306697 12805.189245744961 -999107.49005092133
 34495.283411895914 10996.993864647335 -999344.35583950451
 29726.651417516292 9217.5486282276961 -999515.56415735104
 26225.874385421612 7682.2874589663688 -999626.52324361517
 23798.942529376898 6406.7441555015002 -999696.23584557406
 22178.920491385907 5355.8722718693125 -999739.67117347312
 21135.668515104877 4486.1729059857144 -999766.55163546896
 20492.604636392603 3757.5501710525018 -999782.94342918694
 20119.193528041593 3136.9356816386608 -999792.66734974121
 19919.915766501897 2599.1399382281938 -999798.20035216969
 19825.066592391362 2126.4976914604704 -999801.20261088654
 19784.069773776311 1707.905634996758 -999802.8173802715
 19760.796656913277 1337.5862525368796 -999803.84165020147
 19730.197050712472 1013.7962740733586 -999804.82672442368
 19675.692906554734 737.63312581933621 -999806.14271268528
 19586.926518787815 512.03381265911378 -999808.02663857548
 19457.61753021683 341.03117507745384 -999810.62447734841
 19283.342441632991 229.29940089307411 -999814.03277112672
 19059.129671100942 182.0231439044943 -999818.34172201285
 18776.7487366239 205.11711838710175 -999823.68027260154
 18421.595746958112 305.83345957978912 -999830.26123239053
 17968.991577685414 493.76165088901513 -999838.42271694739
 17379.627692379825 782.18594534419469 -999848.65691084519
 16593.665190412143 1189.6723552188678 -999861.60790143139
 15522.797664552119 1741.6564665875085 -999877.99725037336
 14039.462030449 2471.6418429623036 -999898.38708365546
 11963.082430085065 3421.3351611466851 -999922.58656582318
 9046.7211637696473 4638.1184177298937 -999948.32101150497
 4980.7847302376713 6164.6850884828082 -999968.59372743848
 -523.55643907554872 8000.2199978348763 -999967.86066785245
 -7359.5930027257155 9956.1673441152579 -999923.35262391495
 -13731.565218108715 11306.107747861448 -999841.79550779669
 0 0 0
 -0 -0 0
 43827.13436303562 12637.120850381691 -998959.20110389753
 38552.797334783252 11159.036980564735 -999194.2542425521
 32833.688405528199 9486.7326455885777 -999415.80476266227
 28304.174835959057 8013.771710163981 -999567.23293124861
 25058.117044450395 6798.7847322329617 -999662.87682215706
 22847.384681276813 5807.1387669694614 -999722.09846165101
 21397.92280429653 4988.9949171877079 -999758.59027536132
 20484.609798945679 4300.4096507704699 -999780.91962100402
 19938.391480582763 3707.0755298712211 -999794.33791964571
 19636.342188784234 3183.8225561667273 -999802.11909126095
 19489.961948390079 2713.3459162362969 -999806.37082246528
 19435.698953257746 2284.8778730289646 -999808.49813316914
 19428.127169147061 1892.903052051131 -999809.46424443042
 19435.211090631012 1535.9260889193638 -999809.93868880509
 19434.98232422402 1215.3206711011555 -999810.38425179594
 19413.044318216969 934.29837870534948 -999811.11255918653
 19360.505004740589 697.0474660574298 -999812.32487441925
 19272.044024760533 508.0804186598329 -999814.1478161806
 19143.948194589044 371.83169998119382 -999816.66868916992
 18971.974167381115 292.53171141126597 -999819.97310585377
 18748.951199693925 274.38797610474234 -999824.18531467335
 18461.982366917971 322.08581640713425 -999829.51120068983
 18089.072359315109 441.61732805268116 -999836.28181583551
 17594.846341195036 641.41419546240184 -999844.99297144031
 16924.871754962205 933.74720724628605 -999856.32809530746
 15997.838737988161 1336.3261245671297 -999871.13339079975
 14694.791646685737 1874.0334984481528 -999890.26952806523
 12845.091173842235 2580.650235180799 -999914.16825500538
 10211.542602338614 3499.9974999427895 -999941.73551021505
 6487.0424554379242 4683.7917370537625 -999967.9896752421
 1349.7081286500572 6175.1528475300938 -999980.02268809197
 -5245.2133149504552 7938.6418024614995 -999954.7318272026
 -11792.605438355751 9600.6454776336559 -999884.37434704811
 -0 0 -0
 47658.210173690022 12616.001086445371 -998784.02646399359
 43307.220231246414 11597.909228939277 -998994.48105450487
 37116.4980987327 9889.0769231368195 -999262.01355124847
 31484.789280896894 8379.380415296906 -999469.10608972469
 27194.702142488459 7180.1281415482263 -999604.36870556569
 24167.946919892973 6233.0166226593783 -999688.48140081053
 22127.049263772951 5469.6437945207454 -999740.20459699421
 20801.635427763449 4834.8505293096023 -999771.93208445795
 19976.362914760066 4288.1791955589924 -999791.25643500418
 19491.548286979931 3801.421233590861 -999802.79492607003
 19232.108477191257 3355.9201888890016 -999809.41374004225
 19115.92990679729 2940.3793371475754 -999812.95020276273
 19084.606074055802 2549.1495051975608 -999814.62264151662
 19096.761386239785 2180.8324464190241 -999815.26177309267
 19123.427454108296 1837.0815224915154 -999815.44279626303
 19144.812984981494 1521.5428798990702 -999815.56351310853
 19147.935114973781 1238.9338986562645 -999815.89386427915
 19124.695008812552 994.2762369001058 -999816.61191219697
 19070.134700127219 792.31907139692089 -999817.83450437023
 18980.673986496698 637.18080166482844 -999819.64774435409
 18852.215776222129 532.24127574511942 -999822.1395226008
 18677.992422901283 480.29865873175453 -999825.43571978016
 18446.040340599942 484.00530351934958 -999829.74017310515
 18136.08399427959 546.57593160302008 -999835.37830590038
 17715.526360193355 672.76514669970595 -999842.84140700754
 17134.027303697429 870.10241140919811 -999852.82318456727
 16315.989665983047 1150.4051607278004 -999866.22357652709
 15150.132048297406 1531.6276910524621 -999884.057086388
 13475.743281959749 2040.1713630565778 -999907.1167082513
 11067.166242585357 2713.73622369041 -999935.07462588151
 7625.0142191414152 3604.2928308814689 -999964.43348318513
 2804.9434965274404 4778.2681212900061 -999984.65010506182
 -3611.7543808835849 6297.4454290004096 -999973.64835847612
 -11086.313937789981 8068.5764606004577 -999905.9914397815
 -17222.09437366885 9120.4128651729989 -999810.0907345122
 47510.908751792776 10257.774487689563 -998818.04729997669
 42302.917164599356 9618.7200645460616 -999058.52852757578
 35900.254518912261 8492.4261408831389 -999319.29353121133
 30445.128936890131 7424.7050849122706 -999508.86333159567
 26368.576511413896 6555.9036992795736 -999630.79099207802
 23513.47430489133 5863.5742124911567 -999706.32438910194
 21595.665065265312 5297.9187303587214 -999752.74908725068
 20353.590171644704 4815.7934687262468 -999781.24582350068
 19582.381737709984 4385.836956827754 -999798.62710431183
 19131.318640696423 3987.1683532147631 -999809.02933289763
 18892.408329276601 3607.1482494492193 -999815.0155848962
 18789.042902196445 3239.3979210390139 -999818.22256244579
 18767.044590907401 2882.2072350253038 -999819.72921060992
 18788.216923279044 2537.2368397661858 -999820.26651496848
 18825.864107715126 2208.414585100878 -999820.33873372385
 18861.684064558067 1900.9747504850368 -999820.29543775867
 18883.509439760197 1620.6258798345832 -999820.37718932109
 18883.525243828495 1372.8652087753999 -999820.74779206514
 18856.676575613837 1162.4637999166939 -999821.52128589258
 18799.096448517561 993.15489117487823 -999822.78810601309
 18706.402825644731 867.54391276869865 -999824.64355550066
 18571.766439213341 787.25735044251883 -999827.21993211971
 18383.592453943529 753.32726581233715 -999830.72368602385
 18122.632129853409 766.80965062488224 -999835.47757000779
 17758.186495582322 829.62183663562575 -999841.96678274916
 17242.940927976404 945.60344566523156 -999850.88229309348
 16505.743359951412 1121.8186713033385 -999863.14161439321
 15441.569967925378 1370.1643543943026 -999879.83306323725
 13898.165557784523 1709.3512562110475 -999901.95474977
 11660.463154839379 2167.1810976984525 -999929.6659891156
 8439.3728778487512 2782.173551713624 -999960.51746844314
 3888.9023170889559 3599.9207917011677 -999985.95840594778
 -2271.8328862543021 4644.5029977111344 -999986.63359429035
 -9806.7145488640945 5796.1231274527463 -999935.11454816326
 -16610.054891035648 6526.1618889016099 -999840.74496267468
 47309.980824361352 8025.839425488075 -998848.0122700925
 41682.624967878517 7766.371876217343 -999100.71676666697
 35142.859567494568 7207.3363333998459 -999356.30969359307
 29769.164121763562 6599.810009129189 -999535.01158055244
 25818.770569725748 6061.9285744098224 -999648.26019366761
 23069.83063475454 5608.9114414246078 -999718.12178579927
 21226.120810637753 5220.4384933551655 -999761.07086506893
 20030.075359576007 4871.7258186158879 -999787.50860802329
 19284.11859721267 4543.109712707681 -999803.72219954617
 18844.398791403713 4221.6637236259539 -999813.51570660167
 18608.55115412048 3900.4614876417522 -999819.23777457292
 18504.353446642224 3577.3547932798169 -999822.37994366023
 18480.948083295269 3253.7849996390605 -999823.91821816238
 18502.547110234056 2933.7203033820556 -999824.50911928306
 18544.078981146049 2622.7097433455378 -999824.60388227238
 18588.17693696525 2327.0387268748136 -999824.51688730018
 18623.030487923883 2052.992922842066 -999824.46857211133
 18640.714892652013 1806.2493797794098 -999824.61522582488
 18635.747330847833 1591.4258230107648 -999825.07284288015
 18603.665582025398 1411.8114390872677 -999825.94005925476
 18539.50630657898 1269.3009740271689 -999827.32288177917
 18436.040269777823 1164.5346875166922 -999829.36358067265
 18281.638665764691 1097.2431789802069 -999832.27480667992
 18057.544883120336 1066.778074501794 -999836.380142938
 17734.258653607121 1072.8161728522743 -999842.16011101799
 17266.545064148551 1116.2199752026086 -999850.2990320673
 16586.440168885172 1200.0594720486743 -999861.71536857402
 15593.454571542767 1330.7927766291878 -999877.52908299281
 14141.387863039172 1519.5476992210886 -999898.85094648285
 12022.337226209707 1783.1189327464629 -999926.13921953796
 8952.8972648389899 2143.202959911458 -999957.62525800953
 4581.4799595790746 2619.1487865932854 -999986.0749535535
 -1419.791680145587 3201.9662600399138 -999993.86578301282
 -8960.1470774328991 3791.5524331408333 -999952.66882712871
 -16036.811700941851 4141.9586181179693 -999862.82301587495
 47245.722233766704 6390.7140418751105 -998862.8537014703
 41435.487943563101 6353.2952463031133 -999120.98165256856
 34796.373856769591 6162.9910249842806 -999375.41990387463
 29427.580549313079 5908.6995299468754 -999549.45088918868
 25521.516269028762 5652.3949652781066 -999658.2929373848
 22815.5270590445 5412.0965775954219 -999725.04266705888
 20999.792643407112 5183.2966716154997 -999766.04370449996
 19816.048661882287 4955.4733586897501 -999791.36198469985
 19070.321044130706 4719.4897964859856 -999807.00601232774
 18623.110845327905 4469.8638416505673 -999816.58320898016
 18375.959201285084 4204.9195270077826 -999822.30559995223
 18259.806601735807 3926.2206050692839 -999825.56691386306
 18226.194919500478 3637.8125123077707 -999827.27115181321
 18241.031914334159 3345.4410313388407 -999828.02160121826
 18280.296665866743 3055.7969645404764 -999828.23167718132
 18327.10344520674 2775.8111428751527 -999828.19131679216
 18369.628116733835 2512.0241734356282 -999828.10847535438
 18399.546023847746 2270.063376364099 -999828.13699074474
 18410.701278892258 2054.2562264945941 -999828.39833132119
 18397.830878105051 1867.4081635654493 -999829.00168265321
 18355.178703451991 1710.7564233467763 -999830.06592481711
 18274.883770142202 1584.1044088726458 -999831.74546341028
 18144.971376054807 1486.1209071586495 -999834.26199466246
 17946.756907464565 1414.7860216866079 -999837.94301727577
 17651.330723415194 1367.9519403009151 -999843.26733302616
 17214.684491247277 1343.996139383531 -999850.91304266162
 16570.815018237536 1342.5385500781688 -999861.79328938923
 15622.024144210014 1365.1948709790124 -999877.03674231959
 14225.661345456709 1416.263197768413 -999897.80715723103
 12177.502880784425 1503.007441933052 -999924.72186270985
 9195.5725579207683 1634.5091617819514 -999956.38396138663
 4920.8842418795903 1816.5747888714668 -999986.24238252128
 -1003.8023677026563 2038.4095402329244 -999997.41863034491
 -8545.1686111958225 2250.7694198786294 -999960.95630300732
 -15712.401694081884 2363.7113165840765 -999873.75868247263
 47357.289615800451 5116.9893461225502 -998864.90755270678
 41465.955806506048 5217.9376471420646 -999126.29213516507
 34760.562448083481 5276.512696725069 -999381.73973314825
 29361.53304437382 5291.4868894233414 -999554.85119316156
 25444.945187762791 5271.987120219289 -999662.32344537007
 22731.625465181813 5222.0012711215159 -999727.96495168377
 20904.126908551294 5141.0879159137439 -999768.26649640757