# OOMMF OVF 2.0
#
# Segment count: 1
#
# Begin: Segment
# Begin: Header
#
# Title: Oxs_TimeDriver::Magnetization
# Desc: Oxs vector field output
# Desc:  MIF source file: /mnt/gpfs/work/plgrid/groups/plggspinsym/MF/switching-obrazki/p-ap/Anisotropy.mif
# Desc:  Iteration: 39900, State id: 279450
# Desc:  Stage: 0, Stage iteration: 39900
# Desc:  Stage simulation time: 5.87435e-09 s
# Desc:  Total simulation time: 5.87435e-09 s
# meshunit: m
# meshtype: rectangular
# xbase: 1.0000000000000001e-09
# ybase: 1.0000000000000001e-09
# zbase: 3.4999999999999998e-10
# xnodes: 35
# ynodes: 35
# znodes: 5
# xstepsize: 2.0000000000000001e-09
# ystepsize: 2.0000000000000001e-09
# zstepsize: 6.9999999999999996e-10
# xmin: 0
# ymin: 0
# zmin: 0
# xmax: 7.0000000000000005e-08
# ymax: 7.0000000000000005e-08
# zmax: 3.4999999999999999e-09
# valuedim: 3
# valuelabels: Magnetization_x Magnetization_y Magnetization_z
# valueunits: A/m A/m A/m
#
# End: Header
#
# Begin: Data Text
 -0 0 -0
 0 0 -0
 -0 -0 0
 -0 0 0
 0 0 0
 -0 0 -0
 0 0 0
 0 -0 0
 -0 0 0
 0 0 0
 0 0 0
 -0 -0 0
 0 0 0
 21053.649448897391 33544.40644961621 -999215.45056150213
 18770.915124615334 33336.363651643172 -999267.9018180609
 16729.574630114945 33045.644016870603 -999313.81794919935
 15217.603898425401 32834.003086535929 -999344.96184896247
 13940.342977774759 32750.270847851905 -999366.34253763757
 12551.584512061483 32813.812727501754 -999382.66515910754
 10710.602733359969 33035.716278690212 -999396.7802825073
 8166.4326783700926 33382.893354308275 -999409.27142417699
 5383.9353985600719 33666.093891098368 -999418.63468805701
 0 0 0
 -0 0 -0
 -0 0 -0
 -0 0 0
 0 -0 0
 -0 0 0
 -0 -0 0
 0 0 0
 0 -0 0
 0 -0 -0
 0 -0 0
 -0 -0 0
 0 0 -0
 -0 -0 -0
 -0 -0 -0
 -0 -0 -0
 -0 0 -0
 0 0 -0
 0 0 -0
 -0 -0 0
 0 0 0
 0 0 -0
 0 0 0
 25267.896818211422 31883.070792844948 -999172.15893318551
 23513.006048729061 30830.372336556862 -999248.03061509307
 22272.908166907637 29121.657930864189 -999327.69730511645
 20696.284942587572 28491.200349385872 -999379.76530057203
 18518.920844318731 27541.102176001084 -999449.11689474864
 16692.952794957084 26942.346242547042 -999497.60145081475
 15317.966104178322 26632.342438423431 -999527.92769920838
 14144.352251320062 26542.504669505659 -999547.61404610437
 12881.458666280036 26667.158817376359 -999561.36913310026
 11253.946116564142 27059.813028711575 -999570.46535782388
 9085.1377377494973 27829.069379722121 -999571.40974006685
 6680.3756727030923 29016.692885295375 -999556.60375732218
 5230.5714135936369 29733.285521787267 -999544.18254260661
 3465.0079535941786 31164.588721244476 -999508.2601608237
 963.57319976438851 32019.62955256466 -999486.77572542441
 -0 0 -0
 0 -0 0
 -0 0 -0
 0 -0 -0
 -0 0 0
 -0 0 0
 -0 0 -0
 -0 0 0
 -0 0 -0
 -0 0 0
 0 -0 -0
 -0 0 -0
 -0 0 0
 -0 0 0
 -0 -0 0
 0 0 -0
 0 -0 -0
 -0 -0 0
 29532.211078777913 29712.48370297697 -999122.12307655299
 27342.106574922673 28331.34670394997 -999224.57135620236
 24864.802757116933 27206.376285808197 -999320.54650809837
 22542.309325783892 25340.638802471156 -999424.68266265257
 20865.057385946573 23413.053850608838 -999508.11817096814
 19328.542428519526 21862.945708751904 -999574.11883888091
 17724.234804659434 20673.796688223571 -999629.15405218326
 16351.137566258903 19958.853526794144 -999667.08681749913
 15256.169230207159 19606.752188808736 -999691.36465662555
 14293.36107257308 19525.538420997629 -999707.18371862231
 13269.43708962315 19697.496866521047 -999717.92554526008
 12007.612417416129 20176.172763994276 -999724.33165179635
 10418.614830527456 21069.162487967249 -999723.7332668805
 8637.4876976876585 22436.703462487869 -999710.95229771733
 6941.3257609445691 24031.255462464815 -999687.10942853428
 4813.7342824530951 25873.352876239092 -999653.63880356052
 1918.3075217333226 27723.330042502199 -999613.79395624914
 -986.05114911680346 28774.619844401645 -999585.43854737177
 -3926.5696908893151 29840.945558837615 -999546.94738097047
 -0 0 -0
 -0 -0 -0
 0 0 -0
 -0 0 0
 -0 0 -0
 0 0 -0
 0 -0 -0
 -0 -0 -0
 -0 -0 0
 0 0 0
 0 0 0
 0 0 -0
 -0 0 0
 0 0 0
 -0 -0 -0
 31971.976668054584 26390.619027803183 -999140.29442079191
 28988.52421854185 25468.535857278181 -999255.23223294551
 25751.677762608662 23281.37782490463 -999397.23260522634
 23048.073367550405 21110.530617358225 -999511.44656331872
 20888.750212177874 19077.164796528708 -999599.78086127038
 19291.218244286385 17325.193621120758 -999663.78676265059
 18004.252583947895 15926.566355461535 -999711.05394159688
 16867.791592025773 14903.048991645388 -999746.65627725958
 15908.587508205806 14265.068459956505 -999771.68626908318
 15113.955169331379 13946.057765377693 -999788.51555313647
 14395.614998355511 13884.712923357674 -999799.97050202754
 13635.621018576347 14065.13862868646 -999808.10244506097
 12726.260253657572 14519.584127342789 -999813.59461487888
 11606.79652356624 15308.88908187326 -999815.44306413841
 10287.74417251989 16466.061369303392 -999811.49780487281
 8761.5394662625604 17933.668884728282 -999800.78963087138
 6779.4776813252411 19709.218928320792 -999782.76909116819
 4133.3755228669006 21777.626224518157 -999754.29491591197
 881.4256554398944 23945.534226069074 -999712.87601963105
 -3016.3331268662737 26104.109937253827 -999654.67896611744
 -6433.6313724681859 27042.806588022821 -999613.57283662679
 -0 -0 -0
 0 -0 0
 -0 0 -0
 -0 -0 -0
 0 -0 -0
 0 -0 -0
 0 0 -0
 0 -0 -0
 -0 0 -0
 0 0 -0
 -0 0 0
 -0 0 0
 -0 0 -0
 33281.400194398841 24558.964771719202 -999144.23665977374
 30475.958162459108 22906.664396657074 -999272.98607552622
 26781.049553759451 20373.719380410417 -999433.68311429617
 23546.09094808191 17866.855204269901 -999563.08309489617
 21075.131821799088 15722.453611556195 -999654.26186813519
 19249.96667247442 13942.089257859627 -999717.48855875991
 17927.641428922849 12509.195966722196 -999761.03129150928
 16932.919043298069 11402.982314404333 -999791.60240872717
 16139.211244414042 10606.917272283359 -999813.49219061201
 15495.031706714642 10101.77660980064 -999828.91441572853
 14957.418198538448 9847.6630456190669 -999839.63672849757
 14463.003837305911 9808.9394569500673 -999847.29145341588
 13936.612253161868 9974.0658074294497 -999853.1336402233
 13307.686426670041 10358.544772729052 -999857.79290465137
 12523.032094914828 10993.58982771272 -999861.14768494212
 11543.053594835194 11903.444130738399 -999862.52351587464
 10297.963236312464 13094.061212990118 -999861.2391297773
 8632.759840890405 14594.01388859076 -999856.23477385438
 6376.0546378939189 16446.983162195611 -999844.40923181479
 3393.4890796715877 18672.267988376963 -999819.89910185139
 -407.85200497244472 21279.483955943477 -999773.48295466939
 -4582.7628015118944 23897.887719847458 -999703.90078644548
 -7699.1462256095592 25478.530647732376 -999645.72105492908
 0 -0 -0
 -0 0 -0
 0 0 0
 0 0 -0
 0 -0 0
 -0 0 0
 -0 0 0
 0 -0 0
 -0 -0 -0
 -0 -0 -0
 0 0 0
 34147.551872116404 23778.738341584452 -999133.88307274587
 31429.549279761242 21667.937259257105 -999271.07629861881
 27686.922692637076 18662.619518827865 -999442.4150217498
 24171.565944004884 15831.25181830275 -999582.46626563068
 21373.433360810959 13485.711915205278 -999680.60495365784
 19316.454029351476 11627.300324128124 -999745.80793865013
 17853.950296350595 10170.777170983029 -999788.87358809588
 16828.588304781675 9044.839734912026 -999817.47808779473
 16099.66968703225 8199.2427365288004 -999836.77320576494
 15562.565438005859 7599.9180585693721 -999850.01265314338
 15151.26491629938 7219.8242610495709 -999859.1467347166
 14815.345061822019 7031.3079511600909 -999865.52408771194
 14504.049884567426 7012.4712010880558 -999870.22047093662
 14164.522664776863 7154.9066589225458 -999874.07887612574
 13745.742239959642 7465.4000032994509 -999877.65370222344
 13200.44787121586 7961.3515708721116 -999881.17546894774
 12478.218830767541 8663.6262028724977 -999884.61116062198
 11505.81098118413 9596.5493365314942 -999887.75497777585
 10169.362601210451 10802.246829055384 -999889.94170745078
 8327.7686025600669 12345.253818391086 -999889.11534142727
 5830.4036745902067 14308.23909241506 -999880.63321931858
 2554.1151184164469 16780.143252419908 -999855.94126773591
 -1419.5009567301565 19723.016379620582 -999804.47470589122
 -5548.5279496043868 22724.007872260558 -999726.37921774061
 -8552.2747607851143 24611.504349141047 -999660.50859783799
 0 -0 0
 0 0 0
 0 -0 -0
 0 -0 0
 0 -0 -0
 -0 -0 0
 0 -0 -0
 0 -0 0
 0 0 -0
 35101.067466666551 23395.221471798872 -999109.89319242875
 32272.831946366558 21134.345109752197 -999255.62484028249
 28429.470602250793 17887.929003280147 -999435.73440079158
 24769.233229139147 14788.26610927708 -999583.80952810647
 21758.195374327337 12228.33434135799 -999688.47586300038
 19480.882427851629 10231.155539022342 -999757.88002704375
 17850.234262924303 8704.9654069493863 -999802.77690853749
 16723.637517527284 7545.7552641789416 -999831.67659645353
 15963.932714329318 6673.3410580296786 -999850.29848043539
 15456.733136288529 6032.3495070598774 -999862.34060503461
 15115.188194935608 5585.3473929062384 -999870.15906083118
 14877.070830931112 5305.3887786393025 -999875.25502604549
 14694.490825158764 5171.1328628472302 -999878.65830024786
 14525.111965048965 5167.4446486578136 -999881.15225670987
 14328.461203052924 5287.7607479466806 -999883.3605905365
 14065.013110071643 5534.897528929183 -999885.76363280509
 13694.416552584955 5919.8066761432028 -999888.70322861499
 13169.8917429347 6460.2458460560511 -999892.40379907261
 12428.465508110889 7182.9536562313524 -999896.96390272432
 11382.531807875417 8130.6640786115613 -999902.16034934297
 9920.168063918878 9367.8574394554471 -999906.91242364037
 7911.075230380834 10983.002097426428 -999908.39008062496
 5226.8043510048092 13080.215842708056 -999900.78931351227
 1802.9178990543755 15727.601501236408 -999874.68816750601
 -2254.8265099033938 18841.572320033476 -999819.93924402189
 -6460.008312240604 21943.196076352015 -999738.34798839292
 -9593.7676876213645 23827.823896448455 -999670.04277907393
 0 -0 0
 0 -0 0
 0 0 -0
 0 0 -0
 0 0 -0
 0 -0 0
 -0 0 -0
 36708.233429527987 22792.527198335232 -999066.06703580741
 33480.843265935146 20727.407293879241 -999224.40308525076
 29327.559562047842 17518.474250737676 -999416.32831871475
 25426.319564880392 14340.943721235742 -999573.82899242069
 22205.979086132022 11652.70018848558 -999685.5050820451
 19730.86490998447 9532.5447047606704 -999759.88295257976
 17925.89986652369 7914.7185578456783 -999807.99123838043
 16667.629001951642 6697.7045195199507 -999838.65243229258
 15826.539715297342 5788.3141380143288 -999857.99794774852
 15288.092059037917 5115.5603384314518 -999870.04419755389
 14959.113231614272 4629.5755255189461 -999877.38846409414
 14767.688498966278 4296.1700522488973 -999881.72215481556
 14659.587304080109 4091.4211278350322 -999884.17167851434
 14592.454668473261 3998.0977010286042 -999885.53118920629
 14530.498177803223 4004.6621114008644 -999886.4072003772
 14441.056458100613 4105.6363859701341 -999887.29346773913
 14292.357071432367 4301.9506448095099 -999888.60467053647
 14050.921870433631 4600.9776158576424 -999890.69532602886
 13677.38317099007 5017.0369367433423 -999893.8736335818
 13120.737781839636 5573.6515613727688 -999898.38516137877
 12312.919882163031 6307.7986161924364 -999904.29726078943
 11165.933098463443 7274.3147063358738 -999911.19919900573
 9571.8827669343573 8548.44172624782 -999917.64821126591
 7409.100570084529 10221.87660274295 -999920.30605816818
 4561.3979409541507 12381.285900539498 -999912.94491484272
 957.06980166995197 15057.298628652354 -999886.17440956866
 -3337.0899382041853 18113.048403160781 -999830.37626803934
 -7879.3146901928212 21017.060862453014 -999748.06804150273
 -11466.49395300252 22542.036631929837 -999680.13689425203
 0 0 0
 0 0 0
 -0 0 0
 0 -0 0
 -0 0 -0
 39550.00713258639 21013.537610394913 -998996.61069140187
 35641.563658119441 19831.601471518738 -999167.84702225064
 30832.453356493977 17084.449486099722 -999378.54760134628
 26435.959816478542 14089.085477967517 -999551.21814691206
 22858.884124770211 11432.134348315873 -999673.33550556004
 20118.416403364037 9272.9443234694063 -999754.60080211412
 18106.78717100036 7595.1943148563105 -999807.21005685069
 16688.314039073946 6322.5912122203054 -999840.74982713931
 15731.564353071541 5369.7443328985319 -999861.83231924847
 15120.687304807359 4662.6979746256884 -999874.80419451906
 14759.371044163729 4144.756722544581 -999882.48407404928
 14570.6304997097 3775.1677092779787 -999886.71600117162
 14494.484317107313 3525.4025298286174 -999888.73454069067
 14484.546142266956 3375.4802843880852 -999889.39591131906
 14504.128001345156 3311.3736200021162 -999889.32641351328
 14522.687946701693 3323.8051089454375 -999889.01576845045
 14513.056949207308 3407.9935708299968 -999888.87220421166
 14449.152791261751 3563.815956509437 -999889.25446743483
 14303.514711151629 3796.198283486347 -999890.49317687796
 14044.097090370184 4116.0255764341537 -999892.90510052652
 13630.272972645282 4541.9747415116899 -999896.78773568361
 13008.592455387696 5103.2969081876236 -999902.361674877
 12108.938338740951 5842.7885349887283 -999909.61363237433
 10841.3150438594 6818.694896750173 -999917.98228055937
 9094.0847293612551 8103.0326709437604 -999925.81649063784
 6735.5368662098908 9771.7821093676557 -999929.56992856809
 3623.0259543132411 11880.290121378317 -999922.86321974173
 -362.78649597531097 14408.600960672533 -999896.12490713981
 -5208.3920454545196 17142.014674898892 -999839.49911232584
 -10471.738710313341 19429.255776920534 -999756.39368214994
 -14735.22457904602 19946.202284132003 -999692.46379626426
 0 0 0
 -0 -0 -0
 0 -0 -0
 0 0 -0
 38174.436627421826 18225.590821016209 -999104.86948438198
 33331.195088207984 16309.730831057144 -999311.27488596376
 28196.640388704414 13756.440470138985 -999507.73374515784
 23995.446087858152 11305.351268062923 -999648.1418978133
 20808.754572162183 9221.1634500906312 -999740.94938528084
 18483.137208623011 7551.2009996710967 -999800.65663230559
 16839.891075717522 6257.1106205176056 -999838.62029591599
 15721.653847707757 5274.1535069440879 -999862.49699900136
 14998.871215501973 4537.1666791488951 -999877.21645249345
 14567.238828151869 3990.8445638492585 -999885.92785006762
 14343.883470135486 3592.340184664446 -999890.66807276139
 14263.633666415719 3310.1637112522526 -999892.79003842943
 14275.55229126706 3121.7639276241553 -999893.22589802521
 14339.719165723616 3011.1023836879426 -999892.64709601877
 14424.268859829763 2966.8552312048973 -999891.56323968282
 14502.809216318979 2981.4042652844346 -999890.38386887277
 14552.242498437048 3050.4920819537997 -999889.45725831331
 14550.79075446848 3173.3060873270883 -999889.09615861683
 14475.875128595449 3352.9133279172811 -999889.59741137247
 14301.541845225658 3597.1031927179256 -999891.25746226532
 13995.296974849078 3919.7716963934063 -999894.37794820813
 13514.391160284717 4342.7795834895096 -999899.24567281082
 12801.570582158454 4897.9302280312122 -999906.06062275229
 11780.127195279641 5628.3318137179867 -999914.77161018958
 10348.09064879671 6587.868380514994 -999924.7556742084
 8371.8164419290497 7836.6038191672178 -999934.24800335965
 5681.2018097011187 9428.5654455077602 -999939.41121431801
 2077.0538222287305 11384.376525922784 -999933.03866735776
 -2611.6186617797471 13632.737327964996 -999903.65931969276
 -8280.7876920005165 15891.032679055848 -999839.43892786757
 -13559.962770351503 17473.481614556858 -999755.37250366004
 -0 0 -0
 -0 -0 -0
 0 0 -0
 41808.416864518636 16619.981555964539 -998987.40357041662
 37109.599582637609 15580.720805807541 -999189.73111115792
 31147.288980714762 13391.041338386545 -999425.09794432588
 25986.927509321391 11174.052330231259 -999599.83000856231
 22064.916176272884 9231.5536508431669 -999713.91802421445
 19225.852391856366 7632.1086468125332 -999786.03586837999
 17229.749549513905 6362.6238908114346 -999831.31214604643
 15867.440377990948 5378.6942859586125 -999859.63714094856
 14975.496261889455 4628.3703108547052 -999877.14880377974
 14429.272062533022 4063.3271292523746 -999887.63642740669
 14133.585989754914 3643.289900055252 -999893.47841946362
 14015.217793080412 3336.854813861039 -999896.21414933051
 14017.411282816829 3120.5289299763776 -999896.88192339381
 14095.837599598939 2977.1101575555435 -999896.21670325124
 14215.51378855344 2894.1000850385872 -999894.76613912999
 14348.3527615741 2862.48118844601 -999892.95975843084
 14471.151203770352 2875.9873985124859 -999891.15131564252
 14563.865006813205 2930.813129925602 -999889.64599622739
 14607.969066655505 3025.6882798457495 -999888.72003347497
 14584.668833865866 3162.2492404070672 -999888.6376065826
 14472.732719979373 3345.7287837746026 -999889.66696657159
 14245.767598865363 3585.9652538092118 -999892.09365746938
 13868.769838383841 3898.6951838434093 -999896.22331471648
 13293.710738993681 4306.9212556441498 -999902.3590751678
 12453.738811145313 4842.0081582895045 -999910.72568835807
 11255.455008010305 5543.8844658960434 -999921.28694092284
 9568.8881745215676 6459.4164626599595 -999933.35393818386
 7216.2339988159629 7637.4030771404268 -999944.79649684229
 3966.2736710687518 9117.3104307699941 -999950.57044019701
 -438.29416768108143 10905.735832097669 -999940.43463807541
 -6122.7453560379226 12922.780104583959 -999897.75164447376
 -12487.008323631597 14818.907543450619 -999812.21967044601
 -17281.248858300176 15319.532886481089 -999733.29961047007
 -0 -0 0
 0 0 -0
 40629.834099493113 14292.689623130598 -999072.03724475473
 35153.600497021325 12977.485520844488 -999297.65797866869
 29094.624407425181 11068.047085289092 -999515.38315541123
 24179.408253460842 9268.1211010819989 -999664.67285173584
 20566.183013167411 7757.4544073021061 -999758.39782288775
 18021.784638844314 6541.9839885040037 -999816.19196926651
 16281.236728831256 5585.7315851793956 -999851.84949233278
 15129.205649018953 4844.7672423117228 -999873.8097214055
 14404.543913663205 4277.371642309382 -999887.10023005737
 13988.660529252667 3847.6351620375599 -999894.75100145268
 13793.632511336073 3526.4447876699833 -999898.64480821346
 13753.218045501779 3291.1667454938033 -999900.0036077837
 13816.622110943361 3124.6779563539144 -999899.66363686346
 13944.24169832133 3014.2023314441512 -999898.23117543536
 14104.7126475354 2950.2308301483336 -999896.17121938185
 14272.767772398325 2925.7053376266585 -999893.85854119167
 14427.586469430013 2935.5114016630469 -999891.60788631369
 14551.3909627257 2976.2866614947307 -999889.69328559376
 14628.083955912211 3046.4889102135803 -999888.36280111724
 14641.718236519149 3146.7101585535243 -999887.85286264017
 14574.603061765283 3280.2069367606387 -999888.40436722955
 14404.839743925855 3453.6569849715611 -999890.28040349612
 14103.048676345608 3678.0900874348063 -999893.78219455946
 13627.938937754368 3969.9258086645877 -999899.2544098543
 12920.212281991324 4351.9540606826331 -999907.05998629797
 11894.137427050875 4854.0584201596621 -999917.48040111782
 10426.24491864616 5513.3492860340693 -999930.44577937853
 8341.7583662628604 6373.1477357837384 -999944.89750950621
 5404.0884767218131 7479.225252787689 -999957.42760247248
 1328.5547429081571 8867.5605021059255 -999959.79984849237
 -4108.9302478391919 10520.449697295284 -999936.21638101747
 -10660.901014592126 12213.077386378536 -999868.5843301164
 -16403.963457258607 13222.764785531575 -999778.00959729019
 0 0 0
 -0 -0 0
 39087.147697280816 12558.775778354524 -999156.88059275248
 33323.233427829466 11031.95311948961 -999383.73917343875
 27391.179713896545 9355.1456780441695 -999581.01448718167
 22756.576671038227 7908.5931437158797 -999709.75406499987
 19422.64124697059 6743.8633876874719 -999788.61831569148
 17117.403040644182 5827.7186617566094 -999836.50273849454
 15571.899399313788 5114.3337128280236 -999865.67074771191
 14575.04149457156 4562.545831261169 -999883.36886907439
 13971.779024879785 4138.5077086927049 -999893.82543589361
 13649.837047184783 3815.2546546473941 -999899.55784593965
 13527.19942267907 3571.7535787661159 -999902.12393621379
 13542.782619863414 3391.873000502068 -999902.5393689425
 13650.041262465524 3263.3777792985629 -999901.50851921539
 13812.723519205729 3177.0031660376894 -999899.55261509388
 14002.051787954761 3125.6928047699794 -999897.08099894819
 14194.79875781687 3104.034246261509 -999894.43075737893
 14371.874265230332 3107.9276180639231 -999891.88916403649
 14517.152772283047 3134.4625006733104 -999889.70762790518
 14616.314863546724 3182.0001190051976 -999888.11284815858
 14655.512500053024 3250.4227570155322 -999887.31900412741
 14619.661568639314 3341.5561448094581 -999887.54342583416
 14490.15720708602 3459.7370225374807 -999889.02662437945
 14241.743113165747 3612.5308518826214 -999892.05536094855
 13838.168879358751 3811.5593925224011 -999896.98324230558
 13226.111226475952 4073.4328560208523 -999904.23397773074
 12326.706059650711 4420.758402003441 -999914.25092998345
 11024.121277116688 4883.2487995531937 -999927.30867359997
 9151.5407253707126 5498.8440599533778 -999943.00438392791
 6478.5193818017524 6314.1833255693036 -999959.07910051534
 2715.2229320734496 7381.05478661501 -999969.0733191031
 -2414.3415585832295 8736.200765608548 -999958.92403189314
 -8848.8527794989823 10326.535065139127 -999907.52596329385
 -14931.753908009718 11772.349756348729 -999819.21091087488
 -0 0 -0
 44032.676313454576 12646.806236101513 -998950.03964597802
 38680.940193418712 11367.360017926329 -999186.95347366098
 31921.842638199181 9588.5544614034061 -999444.37343252031
 26066.138993088767 8097.0369169018913 -999627.42779055412
 21674.111223311083 6942.866881120457 -999740.9812057073
 18569.966686646145 6059.2102032691973 -999809.20295272814
 16451.311124514577 5381.5778712501624 -999850.18526872317
 15051.29905023394 4860.0908222242342 -999874.91113343777
 14166.409855086486 4457.8405767923077 -999889.71416312177
 13648.778985678147 4147.6193780567082 -999898.2488662008
 13392.095987186791 3909.2405288226882 -999902.68006619427
 13319.188383691326 3727.6354015006136 -999904.34740284679
 13372.859024987358 3591.5103795672189 -999904.12925174541
 13509.627122235315 3492.3436488677576 -999902.64201613958
 13695.609162376353 3423.6258329871002 -999900.34957280976
 13903.849425970504 3380.2856084892296 -999897.62307965558
 14112.557696078911 3358.3022953173013 -999894.77322414692
 14303.869231830213 3354.4797013376492 -999892.06757076131
 14462.832011602519 3366.3870225082528 -999889.74088577332
 14576.401813959821 3392.4337672821371 -999888.00368005841
 14632.245603327921 3432.0835524868821 -999887.05271700211
 14617.172120052503 3486.1781230385309 -999887.08604587312
 14514.976854323746 3557.3855150743452 -999888.32399184234
 14303.443085076264 3650.7535627606244 -999891.03582057171
 13950.133357995381 3774.3977777247947 -999895.56839737506
 13406.480998573681 3940.3374927626478 -999902.36523756548
 12599.568434038212 4165.5731332692967 -999911.94556108152
 11421.057317346143 4473.5216549822935 -999924.7706971541
 9713.4768862950077 4895.9967105859505 -999940.83704136708
 7256.8280026241446 5475.7360378743433 -999958.67652727722
 3766.9328181240635 6268.6806226530362 -999973.25657259196
 -1057.5297161583903 7341.9271611710365 -999972.48848978826
 -7324.087325878605 8746.7896566173877 -999934.92359030328
 -14264.603847603583 10339.364504254489 -999844.79726541496
 -19397.568802770784 11066.669546518804 -999750.60047478322
 43480.949677345197 10206.712795684665 -999002.1171294197
 37496.763234972801 9363.2061834832293 -999252.88246612833
 30672.950075480094 8131.3210680166521 -999496.39906872914
 25039.024852897895 7052.5643063575171 -999661.59702727443
 20876.481485007247 6219.0573939494207 -999762.71977201523
 17957.366765895786 5590.346997440538 -999823.12485723372
 15978.837573865438 5114.643329298915 -999859.2486812342
 14683.040950127635 4751.2928049007596 -999880.90967131627
 13875.326812413474 4471.203183496621 -999893.73617797019
 13414.799027715846 4253.9082739341729 -999900.9688121333
 13200.358329301891 4084.9214701703272 -999904.52742077375
 13158.726094743273 3953.8539557391964 -999905.60302783595
 13235.640079110415 3853.1286512144361 -999904.98110135098
 13389.833318599034 3777.1018005399696 -999903.21824949072
 13589.09057159391 3721.4414191833189 -999900.73881920939
 13807.718015655613 3682.703705366514 -999897.88709478662
 14024.915406199447 3658.0530199163313 -999894.95468071674
 14223.657392348252 3645.1219504042274 -999892.19451716496
 14389.801062912598 3641.9788860754866 -999889.82873872807
 14511.186749967457 3647.2091582922399 -999888.05539643439
 14576.546422813493 3660.0805916156874 -999887.05767423892
 14574.030203860237 3680.8054775584324 -999887.01827489154
 14489.154416868936 3710.8776066781211 -999888.14063957799
 14301.911825694895 3753.509276967462 -999890.67726738902
 13982.705386191512 3814.1685785686659 -999894.96251763206
 13486.638377103565 3901.2784275890012 -999901.44044896541
 12745.595880157891 4027.1351796439276 -999910.66199331277
 11657.597324072876 4209.171640923274 -999923.18869937584
 10073.513717893002 4471.6243077091985 -999939.26260419737
 7783.487019107487 4847.4113205878903 -999957.95908293698
 4512.2238554803289 5378.7882671149346 -999975.35393261351
 -48.165531314960091 6110.7558031490244 -999981.3279974761
 -6086.2472533875234 7053.9369777646216 -999956.59884191188
 -13195.923875265798 8047.3890128542635 -999880.54642699892
 -19185.101960449443 8545.1973826857356 -999779.43140697677
 42947.017446419297 7810.3318012603158 -999046.82193058962
 36663.329524988738 7430.9619192532919 -999300.04556844523
 29831.512650552093 6786.0776806341646 -999531.90544509015
 24348.437467914307 6157.5231751358633 -999684.56950241001
 20345.812864449374 5646.4688327846616 -999777.0577926886
 17554.78422853594 5254.6993738472829 -999832.09474650281
 15670.706753608387 4957.6320696438152 -999864.9162932483
 14442.517828867636 4730.5753761753858 -999884.51099883195
 13682.569112782594 4554.5610099365531 -999896.01623192825
 13255.478841136004 4416.1418914614433 -999902.39022190892
 13064.198114096724 4306.0069794076508 -999905.38804005296
 13038.387093782316 4217.6958736227016 -999906.10134327644
 13125.921893884231 4146.6492295273974 -999905.253248828
 13287.101444345755 4089.5382859300757 -999903.35963622795
 13490.858486641886 4043.8117847339486 -999900.81724316173
 13712.352451235653 4007.3875956556685 -999897.95091044717
 13931.438838052074 3978.4709141225526 -999895.03788202046
 14131.644213106956 3955.4609037464074 -999892.31968291104
 14299.353468707815 3936.9502265062865 -999890.00840757031
 14422.990775484182 3921.7887907601544 -999888.29221557092
 14491.996969122636 3909.2226209125311 -999887.34365544771
 14495.429004273297 3899.083226755371 -999887.33349711588
 14419.978358620408 3892.0451306775285 -999888.45188292779
 14247.168959770206 3889.9371476669126 -999890.93733547698
 13949.401262894689 3896.1418628986366 -999895.11164071166
 13484.404146899462 3916.0940615579007 -999901.4126663208
 12787.536338295144 3957.9380936321841 -999910.40280639322
 11761.389912091052 4033.3505815844105 -999922.69790740404
 10262.580546730256 4158.4420673624691 -999938.69152068219
 8087.3460333712364 4354.1505029454129 -999957.81721407326
 4962.9143063986885 4644.1713483065269 -999976.90031023964
 566.98901475410412 5044.8013385432196 -999987.11416843347
 -5357.4070671040636 5534.212063276952 -999970.33490316884
 -12579.561489484715 5991.2438134279728 -999902.92510338232
 -18963.731392488047 6185.6316109111231 -999801.03763361229
 42685.817931086516 5973.6840125639537 -999070.68621137727
 36273.495224067847 5881.7838577264092 -999324.59099277679
 29414.652187065127 5651.3677526298952 -999551.31948251592
 23989.974371394317 5393.4600579076541 -999697.65015141619
 20065.772410128695 5169.1094984200145 -999785.29949413554
 17342.332847744798 4992.1497451778168 -999837.14770572481
 15508.136499224318 4856.4280229367278 -999867.94768568303
 14313.927143146095 4751.4811144486803 -999886.26099019847
 13575.730574452962 4668.1658670159877 -999896.94857360551
 13161.539930897252 4599.807761174312 -999902.80309398461
 12976.937313629704 4541.8843705697373 -999905.48072521458
 12953.526488419142 4491.4244228253347 -999906.01221223176
 13040.598848073374 4446.4656505991834 -999905.08135767642
 13199.47651478527 4405.6541792904663 -999903.17732817912
 13399.833277691707 4367.9584802387262 -999900.67777097004
 13617.366196365487 4332.488723985889 -999897.89322676894
 13832.336298798115 4298.3848275710161 -999895.08967710787
 14028.599980687641 4264.7768588273484 -999892.49925225775
 14192.854433884602 4230.790469015179 -999890.32563327963
 14313.865873088309 4195.6086479580899 -999888.74886751315
 14381.497239578843 4158.5651287712435 -999887.93315712013
 14385.349671158339 4119.2837503247674 -999888.04034062871
 14312.829921242021 4077.8417913729008 -999889.25092030573
 14146.399016595902 4034.9770930452141 -999891.79332301847
 13859.68770303261 3992.3260024465535 -999895.97978482966
 13412.039086151257 3952.7231302380887 -999902.24181537249
 12740.920695503381 3920.5560816458164 -999911.14514232799
 11751.587027077405 3902.1740161256535 -999923.33368128422
 10303.652584799007 3906.1910146993673 -999939.2863645117
 8195.5506879678178 3943.2013046367078 -999958.6412009208
 5152.3342307882758 4023.54585580412 -999978.63203706534
 836.55270402399969 4150.3357044342856 -999991.03740639286
 -5050.6211179198363 4304.4273366011676 -999977.98132340272
 -12341.688511568515 4427.0122272425351 -999914.03844901745
 -18877.852454005373 4441.6265336590313 -999811.93163537513
 42728.969666536977 4499.5365288401154 -999076.56829807686
 36255.86987688439 4597.2367790197732 -999331.96552170208
 29357.451341750817 4665.5271461123675 -999558.08881083317
 23927.81630364191 4706.2731078362976 -999702.61108010192
 20015.1626401836 4732.4028441610026 -999788.47644279629
 17304.893719236508 4751.4330311616286 -999838.96930331539