# OOMMF OVF 2.0
#
# Segment count: 1
#
# Begin: Segment
# Begin: Header
#
# Title: Oxs_TimeDriver::Magnetization
# Desc: Oxs vector field output
# Desc:  MIF source file: /mnt/gpfs/work/plgrid/groups/plggspinsym/MF/switching-obrazki/p-ap/Anisotropy.mif
# Desc:  Iteration: 25200, State id: 176550
# Desc:  Stage: 0, Stage iteration: 25200
# Desc:  Stage simulation time: 3.71032e-09 s
# Desc:  Total simulation time: 3.71032e-09 s
# meshunit: m
# meshtype: rectangular
# xbase: 1.0000000000000001e-09
# ybase: 1.0000000000000001e-09
# zbase: 3.4999999999999998e-10
# xnodes: 35
# ynodes: 35
# znodes: 5
# xstepsize: 2.0000000000000001e-09
# ystepsize: 2.0000000000000001e-09
# zstepsize: 6.9999999999999996e-10
# xmin: 0
# ymin: 0
# zmin: 0
# xmax: 7.0000000000000005e-08
# ymax: 7.0000000000000005e-08
# zmax: 3.4999999999999999e-09
# valuedim: 3
# valuelabels: Magnetization_x Magnetization_y Magnetization_z
# valueunits: A/m A/m A/m
#
# End: Header
#
# Begin: Data Text
 -0 0 -0
 0 0 -0
 -0 -0 0
 -0 0 0
 0 0 0
 -0 0 -0
 0 0 0
 0 -0 0
 -0 0 0
 0 0 0
 0 0 0
 -0 -0 0
 0 0 0
 22561.357359340229 32841.298901399496 -999205.90182433033
 20148.482974841729 32556.838170483916 -999266.77665283834
 17798.032482584833 32169.028689556282 -999323.96330365224
 15891.377414450995 31851.045268630016 -999366.28672332503
 14177.554660904241 31646.523344145709 -999398.56639083964
 12341.264477590708 31569.307783311677 -999425.37089928659
 10074.819932716871 31632.915826867997 -999448.77639607585
 7165.5002191207141 31820.870218707074 -999467.90234861174
 4129.5873141364746 31984.523374738164 -999479.8330997508
 0 0 0
 -0 0 -0
 -0 0 -0
 -0 0 0
 0 -0 0
 -0 0 0
 -0 -0 0
 0 0 0
 0 -0 0
 0 -0 -0
 0 -0 0
 -0 -0 0
 0 0 -0
 -0 -0 -0
 -0 -0 -0
 -0 -0 -0
 -0 0 -0
 0 0 -0
 0 0 -0
 -0 -0 0
 0 0 0
 0 0 -0
 0 0 0
 26354.227488754441 31179.33563002351 -999166.3043373418
 24601.380359649695 30091.644162270055 -999244.34701228666
 23386.730505185813 28338.856295561414 -999324.75705355022
 21959.452927522234 27608.686623128844 -999377.57772028772
 19703.420316322507 26466.378610879885 -999455.50477800856
 17610.289560324349 25677.259569194703 -999515.16048663203
 15864.916975210481 25193.82082000449 -999556.68963889149
 14268.210675289396 24936.214222573421 -999587.21649707574
 12566.499235218756 24887.490068267525 -999611.2724129681
 10518.787823066876 25094.351232102777 -999629.74577539111
 7976.2220478784893 25658.27210680224 -999638.95129908575
 5243.1940755058795 26592.068409769821 -999632.61792199267
 3443.0616346599827 26858.909223610932 -999633.30492831103
 1486.0585907458003 28060.376365398897 -999605.12549110968
 -1043.8520413035349 28800.731443424982 -999584.62785360997
 -0 0 -0
 0 -0 0
 -0 0 -0
 0 -0 -0
 -0 0 0
 -0 0 0
 -0 0 -0
 -0 0 0
 -0 0 -0
 -0 0 0
 0 -0 -0
 -0 0 -0
 -0 0 0
 -0 0 0
 -0 -0 0
 0 0 -0
 0 -0 -0
 -0 -0 0
 30109.899586545518 29253.909641540136 -999118.41276075609
 28001.766774597312 27817.244976685415 -999220.7473523597
 25729.234242282851 26514.74104758324 -999317.25443548977
 23470.523175661569 24450.890320570197 -999425.47921512986
 21810.210329203783 22345.830515779202 -999512.37040066486
 20296.010212973546 20594.527424335774 -999581.88129317516
 18601.294335873525 19157.444342337905 -999643.42851603869
 17000.076339727744 18193.162162051831 -999689.95506356296
 15575.689280531165 17610.674376499162 -999723.59282525734
 14224.024158639961 17315.016466936948 -999748.90214567573
 12790.353488909888 17279.273672190247 -999768.89007359603
 11132.911804470612 17547.70592610032 -999784.04482742422
 9188.3210162947526 18218.062521597687 -999791.8168073094
 7098.7621090862885 19339.758255340217 -999787.76814239111
 5143.3662462819329 20665.16348080878 -999773.22268700914
 2883.6017849738241 22322.677383175203 -999746.65936685819
 23.848233069204419 24036.610548525881 -999711.07865452801
 -2672.6388732014689 24877.084963431374 -999686.94482081512
 -5394.19748879492 25867.395110748275 -999650.82929172635
 -0 0 -0
 -0 -0 -0
 0 0 -0
 -0 0 0
 -0 0 -0
 0 0 -0
 0 -0 -0
 -0 -0 -0
 -0 -0 0
 0 0 0
 0 0 0
 0 0 -0
 -0 0 0
 0 0 0
 -0 -0 -0
 32185.359420949771 26253.039822155344 -999137.06794365344
 29387.65586299829 25128.701304467861 -999252.17740749952
 26241.451902276622 22700.519197072954 -999397.85502583708
 23635.661134972062 20248.316197639266 -999515.56326746277
 21531.131741211615 17916.94751644196 -999607.61969766684
 19945.940502254569 15879.930924289916 -999674.94079391623
 18634.62673209397 14197.747582098411 -999725.54966358165
 17395.464434794154 12880.375851457855 -999765.71942381724
 16234.134049823038 11953.245200816942 -999796.76575833221
 15151.168511911561 11363.318544797561 -999820.64245762257
 14088.072531061234 11051.777649842643 -999839.6793602152
 12961.831566981968 10998.846017631671 -999855.49771389947
 11698.831604127468 11231.189728519485 -999868.49021077785
 10266.023279065572 11805.440092033567 -999877.61268580623
 8692.454718753761 12756.611101198776 -999880.84795348241
 6991.0268716952869 14043.344299581628 -999876.94744111539
 4954.2354727717648 15697.120069204113 -999864.51880862995
 2397.2830888578446 17691.904870745941 -999840.61206566158
 -631.19962495180346 19807.28888484757 -999803.61716392369
 -4200.4889574844428 21973.552103577713 -999749.72813223058
 -7163.5224697357417 22932.739254657568 -999711.34504721069
 -0 -0 -0
 0 -0 0
 -0 0 -0
 -0 -0 -0
 0 -0 -0
 0 -0 -0
 0 0 -0
 0 -0 -0
 -0 0 -0
 0 0 -0
 -0 0 0
 -0 0 0
 -0 0 -0
 33084.064480627836 24702.327041623805 -999147.25627215242
 30472.677658547371 22843.296350952129 -999274.53671558178
 26904.812585261679 19990.627655957389 -999438.0950642582
 23741.896437945048 17121.255955190401 -999571.50066818472
 21331.029171654718 14602.866959455951 -999665.8158960134
 19545.152734709507 12449.811890302126 -999731.45853697765
 18228.562042011479 10656.639575563293 -999777.05292671965
 17195.087525815317 9201.7514157310543 -999809.81028186704
 16298.045535319481 8065.7565355640063 -999834.64497047593
 15474.310844717493 7235.4236552129305 -999854.08652883489
 14687.9983119721 6679.0090354643453 -999869.81829830806
 13897.959547607183 6365.2501545781588 -999883.15832945344
 13059.4252303789 6283.23464376631 -999894.98067300243
 12134.222445211777 6447.799762990463 -999905.58880519646
 11098.525234063007 6891.2376957338283 -999914.66314913589
 9937.2910569064352 7644.0420887230439 -999921.40634501667
 8604.2712967686875 8725.163794048216 -999924.91619732056
 6969.2762008025493 10177.345294446199 -999923.92252210609
 4872.7267398058184 12043.186713832296 -999915.60553273442
 2174.641229548879 14335.551535362607 -999894.87592331425
 -1226.6499644938078 17065.120914361796 -999853.62777660752
 -4882.7667477833784 19834.814007970148 -999791.34760316659
 -7388.9322027831249 21576.561222252105 -999739.89401580102
 0 -0 -0
 -0 0 -0
 0 0 0
 0 0 -0
 0 -0 0
 -0 0 0
 -0 0 0
 0 -0 0
 -0 -0 -0
 -0 -0 -0
 0 0 0
 33668.729011819974 24055.753639570776 -999143.50190728891
 31066.971041867371 21791.223949744839 -999279.73354264314
 27423.944300794352 18486.543217778464 -999452.93786093011
 23978.576079462517 15267.536659511215 -999595.88345168391
 21229.717570771802 12498.634069934107 -999696.49556165352
 19212.663177547984 10208.607272253752 -999763.30094237148
 17775.126427457839 8324.4500114817019 -999807.35565032426
 16747.310592805694 6782.5630971906021 -999836.74888740759
 15975.534003212899 5536.4653939429991 -999857.05471544969
 15342.50839029047 4554.9421327258315 -999871.92176721373
 14776.383772619343 3816.6080739513809 -999883.53921114933
 14233.118208240681 3300.8660980124564 -999893.25561735511
 13680.416718863027 2991.6675994112356 -999901.94325412367
 13092.212325974986 2884.5800242757859 -999910.13254916819
 12447.738482762365 2989.5530203062272 -999918.05483219645
 11729.05559974177 3328.1733276723035 -999925.67349630489
 10911.579257687054 3928.1034506119295 -999932.75145950937
 9943.9838729595231 4822.6953116239083 -999938.92753240955
 8728.8367618990796 6061.5416356543528 -999943.53096651577
 7130.4853085963805 7710.1182696760816 -999944.85360720358
 4992.1923436084016 9847.6472685211138 -999939.04907193151
 2179.9859830127075 12555.834342888993 -999918.79604549275
 -1234.3204702400801 15776.296891850776 -999874.78461523226
 -4722.4678674601246 19069.822788755468 -999807.0014538035
 -7037.6764992871804 21252.702218025104 -999749.36547012802
 0 -0 0
 0 0 0
 0 -0 -0
 0 -0 0
 0 -0 -0
 -0 -0 0
 0 -0 -0
 0 -0 0
 0 0 -0
 34548.086580483032 23632.068040213126 -999123.593492702
 31716.706730388138 21293.366491395525 -999270.05511905625
 27887.659149571227 17817.540027402374 -999452.25685598876
 24248.123655921918 14376.806270142059 -999602.58900256874
 21257.684499274463 11405.32229897787 -999708.9723879575
 18999.23733968809 8959.7289696508615 -999779.35177583096
 17384.661025904348 6969.9761832265058 -999824.58111061645
 16264.640304058601 5345.4801173520345 -999853.43291809247
 15491.450336779526 4015.8642823093669 -999871.93570003216
 14939.731239877932 2933.7230644068873 -999884.09213241364
 14513.99449670691 2069.1277516330579 -999892.52556167101
 14149.491112215139 1403.3973983931523 -999898.90607851336
 13805.038545065607 923.83681949794334 -999904.27913690824
 13454.676811716246 623.21618066363794 -999909.28752236569
 13081.77878328294 501.59514766120043 -999914.30406118964
 12674.444444947565 567.4804729015068 -999919.51497304242
 12219.798765563894 837.39905580687446 -999924.9848268372
 11695.230639076834 1335.0990467632416 -999930.71714536031
 11056.417095302806 2093.0881374392484 -999936.68530715676
 10226.656210668965 3157.6594483056551 -999942.72070431989
 9094.7830665201236 4592.722893396729 -999948.09456161142
 7521.4003253315095 6482.0306241761018 -999950.70469305292
 5362.5665154422122 8920.1040943973021 -999945.83584477822
 2535.7844573399934 11957.847658828405 -999925.28704726428
 -870.70308833621152 15487.532105485679 -999879.68187448103
 -4386.1554860157048 19003.333609409747 -999809.79938775476
 -6821.2027771863895 21292.437177885371 -999750.02041095158
 0 -0 0
 0 -0 0
 0 0 -0
 0 0 -0
 0 0 -0
 0 -0 0
 -0 0 -0
 36315.410896958347 22822.652164716634 -999079.73529621412
 32952.186536193221 20765.186637175833 -999241.19231865497
 28696.534903873249 17420.042903216097 -999436.36665360583
 24726.463676579337 13987.779450154796 -999596.39055976213
 21460.996181872313 10952.812667496466 -999709.68862843013
 18955.418894715232 8420.1814943005484 -999784.87317928986
 17129.050101062454 6347.1115826148971 -999833.14098763175
 15853.929047886413 4650.4152487527126 -999863.50397029624
 14994.238528153604 3251.5922197447162 -999882.29305203585
 14427.327758043673 2092.4939855663602 -999893.73119481176
 14051.931407533184 1135.278750867813 -999900.62224496889
 13790.494898727839 357.53408497065141 -999904.84268245555
 13588.338931208622 -252.8915397878404 -999907.64228050562
 13409.976455158068 -701.81575957470807 -999909.83592827583
 13234.257325318902 -990.40773290717414 -999911.93288487662
 13049.458635671657 -1115.3037146331933 -999914.23018523958
 12848.119633417478 -1068.3095628664985 -999916.88881454698
 12620.927890607492 -836.15376322752809 -999920.00331329729
 12349.210063112778 -399.92013408955779 -999923.66562388337
 11996.457481799838 266.7390652845271 -999928.00433739147
 11500.759686098891 1200.8982743426577 -999933.142950056
 10770.68045560005 2453.9411002214019 -999938.98344629013
 9685.838369011859 4093.8698090040061 -999944.71085409343
 8105.3934745913948 6201.0001052353045 -999947.92374119011
 5890.5683918984632 8845.8026874972638 -999943.52489469841
 2947.6786667084639 12037.817044846714 -999923.19812637242
 -673.27396818198395 15614.085765514181 -999877.86605558509
 -4542.245638005048 19015.674158322548 -999808.86780467606
 -7478.3541932032858 21009.505020511344 -999751.30653445714
 0 0 0
 0 0 0
 -0 0 0
 0 -0 0
 -0 0 -0
 39475.548953068814 20742.59588721507 -999005.21807982237
 35352.861892310561 19635.354263712412 -999181.97943065502
 30325.983249820343 16842.278400021398 -999398.15509046649
 25752.178084988696 13689.402871454909 -999574.62231336266
 22038.436833975225 10776.702701705442 -999699.03970184654
 19191.234943783897 8279.2000762041207 -999781.55181391037
 17093.922092628269 6197.4076929256107 -999834.6813175563
 15605.437553197951 4471.8916309180131 -999868.22757002059
 14590.643928665628 3033.4053739572137 -999888.94961469795
 13929.629822808154 1823.5402700574771 -999901.31518759532
 13521.134311549886 801.02417255473711 -999908.26443589514
 13283.285132561939 -59.350599126146186 -999911.77151466405
 13153.10299682553 -770.51401726223332 -999913.19732750009
 13085.200408348313 -1337.1232550106042 -999913.49107393995
 13049.511716788214 -1758.753846858081 -999913.30475639727
 13028.167105864026 -2031.8171173190954 -999913.06551172899
 13011.632103626273 -2150.4010763890296 -999913.03282096027
 12994.040421066677 -2106.4267644974275 -999913.35518624901
 12967.626218981053 -1889.3670218278191 -999914.13179457653
 12916.369561563388 -1485.4263319257352 -999915.47688090196
 12809.331906248559 -875.94140211763772 -999917.57347432151
 12594.567064884637 -34.937503465045197 -999920.68468444969
 12194.565887637395 1073.6318490496028 -999925.06713126495
 11503.780631167803 2497.8276308793456 -999930.70954357437
 10388.928282285582 4296.1400497602654 -999936.80467808503
 8693.53377216033 6527.7107856021876 -999940.90398505633
 6250.7053501247756 9227.6506122882147 -999937.88764442946
 2921.2553655157935 12351.55079462349 -999919.44948583585
 -1294.5166108972542 15654.606984968532 -999876.62114227377
 -5966.9924245955299 18452.222297022345 -999811.93756311294
 -9713.826380066057 19406.688369420728 -999764.48327773204
 0 0 0
 -0 -0 -0
 0 -0 -0
 0 0 -0
 38153.508898787972 17831.250034277207 -999112.78456484817
 33099.927469743197 15884.18676500826 -999325.8164444227
 27709.306063782056 13238.077348424296 -999528.36261187762
 23280.087904024494 10616.631612563215 -999672.60872766934
 19900.415617545121 8281.7669492401747 -999767.6659076584
 17409.726373738671 6285.892096456887 -999828.67981876933
 15623.365102067282 4600.252687175248 -999867.36527306563
 14381.464210742146 3172.5084134915478 -999891.54845789226
 13553.967496472926 1951.8384100017302 -999906.23575009569
 13036.248286432312 898.86324139036776 -999914.62049291376
 12744.42692205696 -11.957126025974558 -999918.78642190516
 12611.989890456958 -793.76991969640676 -999920.1506321982
 12587.579707348172 -1450.3199396218454 -999919.72148227168
 12633.395645018372 -1979.1547117620437 -999918.23678794026
 12723.553435914806 -2374.3377157966997 -999916.23334576143
 12841.926474986261 -2628.3856236689426 -999914.08456598117
 12979.181912148211 -2733.3919910620848 -999912.03083327028
 13128.891845062826 -2681.4706992264851 -999910.21692640462
 13282.789978230794 -2464.5944052638506 -999908.74246843718
 13425.442604486609 -2073.849633895788 -999907.72406186035
 13528.756215255129 -1498.053934741841 -999907.36000375391
 13546.787054098455 -721.80767269240459 -999907.97754303087
 13411.154446980412 276.71667558305199 -999910.02813467197
 13026.992645411092 1527.5179054760604 -999913.97837597225
 12269.120125045658 3068.6554328415973 -999920.02282442141
 10978.326040777732 4941.9623327285617 -999927.52405644103
 8959.5811830334806 7180.7350698224664 -999934.07930167159
 5991.8850856513409 9781.1491525164583 -999934.21105309553
 1885.1811060074456 12640.033171816556 -999918.33449217898
 -3283.6331132507107 15426.324550149024 -999875.61539646063
 -8226.4784980201875 17368.258541601052 -999815.31726952142
 -0 0 -0
 -0 -0 -0
 0 0 -0
 42079.997350002523 15849.340421108123 -998988.52457435161
 37185.158543703161 14924.123759872955 -999196.94480821944
 30960.040060782321 12712.239129853491 -999439.78052493976
 25517.600773025053 10394.182372433297 -999620.33443882933
 21331.733484005239 8282.0916371252843 -999738.14776904555
 18252.770098641351 6442.5117895423537 -999812.64766233473
 16037.449519917958 4862.8081541832271 -999859.56679413316
 14475.00193535479 3503.6049570774981 -999889.09338549932
 13403.959335430203 2322.1850849126376 -999907.46638404776
 12703.851571730414 1283.0806453898804 -999918.47960686323
 12284.006282401555 361.99611903450619 -999924.48322284012
 12074.830161483393 -453.91758835632146 -999926.99355272646
 12022.130122548355 -1167.748399878252 -999927.04971462337
 12083.795863235089 -1775.4006363738188 -999925.41213338298
 12227.91118498759 -2268.3249452567716 -999922.66345452692
 12431.397032619006 -2635.9758532005053 -999919.25273949956
 12678.463249442504 -2867.7264932753515 -999915.51278815162
 12958.398186196813 -2954.1528607593432 -999911.67254779197
 13262.499045202256 -2887.6515955187392 -999907.87955058098
 13580.212755450961 -2662.4249056070394 -999904.24007258739
 13894.751306031834 -2273.8368843264793 -999900.87786338443
 14178.521099883066 -1717.193983851543 -999898.00519065047
 14388.619155433302 -986.03559702271332 -999895.99227749754
 14462.39458336405 -70.179871622266589 -999895.41163948772
 14312.68858563886 1046.0593019576672 -999897.02105036157
 13822.022937027834 2384.7577817706292 -999901.62746754766
 12835.030393919409 3973.2849096883506 -999909.73342687963
 11149.757405130391 5839.4697978427812 -999920.78861392161
 8514.1248102187037 7999.9001543454369 -999931.75330931309
 4653.8044850901279 10435.559433737726 -999934.71847072069
 -571.01796788404658 13039.803314839217 -999914.8151057621
 -6566.3429018891065 15452.643217563102 -999859.03954431775
 -11014.983977682272 16481.478995779726 -999803.49618216651
 -0 -0 0
 0 0 -0
 40957.82967316018 13403.039514407712 -999070.9758171537
 35292.791009753557 12099.29854610449 -999303.77057100832
 28945.407697554045 10149.832660231194 -999529.46143182367
 23729.157836133534 8251.1218237014273 -999684.37321838643
 19824.364845852229 6581.5476194758121 -999781.81509236852
 16999.980550980821 5142.8022966207409 -999842.2636825291
 14990.488099430462 3896.77957842558 -999880.04299288732
 13583.507855993048 2801.8819840226874 -999903.81425998837
 12625.016362394101 1823.5503534165143 -999918.6385031325
 12006.06662127639 937.61517132552092 -999927.48499182484
 11648.755605548693 130.81188361963268 -999932.14238821913
 11495.592438637092 -600.21441420119311 -999933.74335359933
 11502.53566198523 -1250.8246643016994 -999933.06131510821
 11634.922350526063 -1810.7657214248111 -999930.67245154525
 11865.297050699945 -2266.6732439298744 -999927.03579726443
 12172.172743790545 -2604.3875885866232 -999922.52468677983
 12538.917362412509 -2810.8817428694215 -999917.43383901741
 12952.198930369959 -2875.6333744970107 -999911.98176417686
 13399.719163635216 -2791.3750150352485 -999906.32348828623
 13867.238576966758 -2554.1758123431987 -999900.58299821464
 14335.092064745104 -2162.8876455867207 -999894.90800410009
 14774.438790241806 -1618.0017585326677 -999889.5429139873
 15143.375743214792 -920.04488046217261 -999884.90922131517
 15382.769386164668 -67.681026756824167 -999881.67591235053
 15411.296879421101 944.21345665040235 -999880.7930895777
 15118.85509722781 2126.1738738151334 -999883.44300983765
 14357.490576979644 3495.0069522204576 -999890.81773498445
 12930.106872992119 5073.1631973981366 -999903.53302277403
 10581.858673672848 6884.8604290298017 -999920.30830655876
 7014.9013348945791 8943.0704785633261 -999935.40423853241
 1996.3667792944241 11203.74852249596 -999935.24317264021
 -4238.8837335674252 13405.495694876785 -999901.15739000333
 -9832.5226384561411 14753.322290641358 -999842.8181369073
 0 0 0
 -0 -0 0
 39425.67011195024 11513.362720158546 -999156.17348595592
 33483.163287331496 9952.5031589789469 -999389.72651170695
 27267.925458814112 8221.501647176161 -999594.35130048543
 22325.569820243301 6684.9215457683722 -999728.40349573374
 18678.997373302267 5379.8677149254945 -999811.0581907453
 16058.890053583928 4263.9471368723625 -999861.95587444014
 14198.933635294377 3287.0763967477756 -999893.78706559737
 12895.563551079211 2408.8751667266351 -999913.94717802154
 12006.171508511528 1601.4250528628288 -999926.6409509792
 11433.867089445584 848.71249267489748 -999934.27102509385
 11112.45540140009 145.29581062322171 -999938.24420515052
 10994.965680376976 -505.4202902929635 -999939.42580539244
 11045.944065661755 -1093.2295785314211 -999938.39408674929
 11236.834389728128 -1603.4189650392038 -999935.57922524202
 11543.530117102171 -2019.1330700044421 -999931.33264943794
 11945.17465707988 -2323.6282797688032 -999925.95403561217
 12423.387557687922 -2502.1966016600686 -999919.69600251305
 12961.306583477202 -2543.606323398456 -999912.76349415653
 13542.096590899449 -2440.9228294860063 -999905.32227589597
 14146.846033018452 -2191.6696695863129 -999897.52641527099
 14751.951180505503 -1797.3228124518828 -999889.56868600042
 15326.141515474341 -1262.2205748372642 -999881.75110133307
 15827.184852817145 -591.99163347408398 -999874.56701605348
 16198.068819187398 208.33770689630038 -999868.78097174747
 16362.128737741403 1136.4106990185248 -999865.48560988577
 16216.312465204792 2194.6264474112645 -999866.09844758082
 15621.760991297531 3392.1290497886312 -999872.2188580099
 14391.764093446292 4746.4600582416097 -999885.16752834874
 12280.63799537066 6283.9337362255428 -999904.84452633059
 8988.253158883279 8034.7065079278582 -999927.32475739613
 4230.036373283835 10008.083052084095 -999940.970790728
 -1953.6360380868778 12106.460219031636 -999924.80563650164
 -7971.5209877350317 13871.73494651452 -999872.00672021799
 -0 0 -0
 44508.096606253319 11086.281583511663 -998947.50797884236
 39064.847031771365 9992.4097056868632 -999186.71402028645
 32104.211685102226 8262.9030514085753 -999450.37096658349
 25970.639287638278 6758.2562623709573 -999639.86108362197
 21266.932967070141 5544.163030300052 -999758.46073862631
 17831.775338915933 4549.1201155112813 -999830.65230789816
 15366.673444584887 3702.088680762849 -999875.07213983848
 13610.485297169133 2949.4711591325545 -999903.02295265463
 12371.392145525726 2254.9003142286392 -999920.92891435896
 11519.006746853576 1596.5570816664272 -999932.37945825653
 10968.006070571275 964.65179174772265 -999939.38430774724
 10662.791285012494 359.29564095618628 -999943.0862747411
 10565.626375179452 -211.469625336929 -999944.1598508876
 10648.442861126825 -733.72044456103038 -999943.03453693946
 10887.766787882039 -1189.8297738307538 -999940.0186208582
 11261.998609934206 -1560.728852401262 -999935.36366745178
 11750.204048554935 -1828.0806225532683 -999929.29291328124
 12331.628765380117 -1976.1922176155417 -999922.00975691702
 12985.291068150194 -1993.4673705466616 -999913.70042805083
 13689.239001820957 -1873.2775013154981 -999904.54322747933
 14419.289666749171 -1614.1644537314048 -999894.73373881856
 15147.253016780873 -1219.3910338113519 -999884.53023914329
 15838.694213294064 -695.89279196962389 -999874.31785141851
 16450.211218603115 -52.757452094800691 -999864.68472864584
 16925.994338057164 700.64865104391038 -999856.49960738677
 17193.17132101985 1556.7813811099966 -999850.97454153525
 17155.204130962251 2512.1959678748212 -999849.68262366508
 16682.601835563401 3570.0058286339486 -999854.46233658423
 15600.889300401581 4742.5897338173172 -999867.05121013615
 13678.370807698831 6054.4331723644118 -999888.11674657313
 10624.269076929635 7544.1982932170868 -999915.1013854593
 6132.4674293168018 9262.4012453991836 -999938.29847966006
 84.870608744427088 11248.157889309552 -999936.73386923678
 -6762.6385146172161 13374.951828304489 -999887.68238433218
 -11841.093560978969 14722.586250735458 -999821.50104774698
 44040.812017220123 8496.3498035647808 -998993.60304102011
 37968.116925315851 7752.3996606795699 -999248.87910702534
 30914.487546737691 6599.1050970887954 -999500.24825991923
 24989.840446839404 5547.44195365416 -999672.31319178408
 20503.461558516079 4689.45413134711 -999778.78407379135
 17233.284798953064 3983.0228507668944 -999843.56247565476
 14878.539496801404 3372.754511636223 -999883.62002257362
 13188.480563584975 2815.6272469074174 -999909.063977135
 11983.36974078134 2283.4276518690003 -999925.58963545598
 11144.196687350117 1760.8642577823473 -999936.35109303775
 10596.0186754691 1243.3415155787868 -999943.08762554324
 10292.56884937521 735.00876015670678 -999946.75997705176
 10204.160630859129 246.93797500769048 -999947.90570682043
 10309.087851152857 -204.74165732344767 -999946.8389812184
 10588.135678330606 -600.85554049677182 -999943.76359647175
 11021.575641828029 -921.28333814126711 -999938.83618318487
 11587.918626175917 -1147.0282276386995 -999932.19993565488
 12263.673101465993 -1262.0540323514351 -999924.00188298291
 13023.450699283188 -1254.7214345320017 -999914.40403966827
 13839.928070959837 -1118.6630248980193 -999903.59784532594
 14683.390916307315 -853.03271836069655 -999891.82933274354
 15520.750228296391 -462.1117809453242 -999879.43911506282
 16314.000356490957 45.653143972728451 -999866.91679851012
 17018.031719584083 659.0834454740135 -999854.96558521094
 17577.558246791174 1366.038515437438 -999844.56961312506
 17922.697689984027 2155.4271908221735 -999837.05224458373
 17962.558323662564 3019.3933805716374 -999834.10111982201
 17576.176855011745 3955.6831311034639 -999837.70211876277
 16600.712081948797 4970.1844093046202 -999849.84553947393
 14818.910481818462 6079.4045824403911 -999871.71213713952
 11954.34442889375 7311.5193913183466 -999901.81284637423
 7701.7387539142728 8700.1335890935807 -999932.49316926289
 1871.6968647150895 10246.791277697403 -999945.74853806861
 -5150.3269889549138 11773.481497670484 -999917.42622345116
 -11247.322941313687 12652.073787019295 -999856.70111048489
 43563.876849799701 6037.8562206471233 -999032.39833654766
 37213.259905934428 5712.8714420037395 -999291.01686498744
 30142.855425870424 5138.2226565362052 -999532.39413973328
 24355.675358542652 4553.3346164032246 -999692.98698235385
 20014.464722232871 4044.2939511883146 -999791.51071026747
 16852.439397118465 3606.4290108437717 -999851.48344949551
 14565.065431817571 3210.8772871699912 -999888.76838177058
 12908.973824340987 2830.7377039236035 -999912.66884606192
 11713.887874416523 2447.9697687202652 -999928.39357369835
 10870.07593852963 2054.0193748002184 -999938.80935460189
 10311.249781537203 1648.8326959557153 -999945.47825303127
 9999.0289269731802 1239.5389417685453 -999949.24019358575
 9910.5750325179743 839.03823851777406 -999950.53703538689
 10029.591628851345 464.43275321862421 -999949.59452663222
 10340.411863869154 135.28276744170319 -999946.52736086759
 10824.697659698113 -128.28092990427155 -999941.40301548631
 11460.120287811147 -307.44140489843033 -999934.28340205015
 12220.3246836624 -386.41487392094791 -999925.25438063196
 13075.494178525711 -353.80923399929685 -999914.44947606057
 13992.96456835511 -203.49185549799247 -999902.07297197543
 14937.509187765421 65.128109304229781 -999888.42706453754
 15871.089504736015 447.40046807854526 -999873.94623060059
 16751.948161179582 934.27467121601637 -999859.23977510142
 17532.909272091041 1513.5700450509771 -999845.14110844932
 18158.62843256534 2171.5670508792191 -999832.76027043234
 18561.365294123163 2894.7987703042481 -999823.53235883452
 18654.682098835146 3671.9601763894257 -999819.24343565956
 18324.44723551692 4495.8342489143033 -999821.98520932684
 17416.919991562474 5365.0319283926428 -999833.91987390351
 15725.306892697359 6284.8512844371071 -999856.59740157879
 12981.112861179849 7265.078949838723 -999889.34854649671
 8870.7581550976265 8308.4202037256273 -999926.13717387745
 3139.1230794739818 9374.4035179433013 -999951.13203844836
 -4022.1407719446656 10301.34362377212 -999938.85048194614
 -10602.945695807433 10764.482479315295 -999885.84521410463
 43312.426069418056 4209.4062331818368 -999052.70864311524
 36863.697214338157 4147.3454816622943 -999311.69679592224
 29777.62351009253 3972.5705427020439 -999548.65405410575
 24047.810127932666 3762.3089632035603 -999703.73004171392
 19776.649759631902 3558.2784758208445 -999798.09100566548
 16666.985902547796 3363.4024059065587 -999855.43910366378
 14407.46434499006 3165.0745781032738 -999891.19771806314
 12757.64558627191 2949.8681031520719 -999914.26670353534
 11553.237272707856 2709.2601794650623 -999929.58883003367
 10691.18435735815 2441.0416787114032 -999939.86813835928
 10111.845183548272 2149.1355813087262 -999946.56447394087
 9783.1290518064143 1842.8940020631494 -999950.44583601877
 9687.7880453184935 1536.135519164769 -999951.89236805588
 9813.9839152164805 1245.9632796069566 -999951.06545031385
 10148.945831414188 991.34618080737187 -999948.00671397964
 10675.351256228465 791.53421199400123 -999942.70353313093
 11369.906254531699 664.41448016176571 -999935.13978915731
 12203.462783988289 624.98666641718296 -999925.33965678979
 13141.982388460023 684.11282096662603 -999913.40639504872
 14147.724008130841 847.69152523668413 -999899.55661779735
 15180.193405014161 1116.3259467261721 -999884.15106179554
 16196.546596373075 1485.513638172034 -999867.72381529666
 17151.249703458561 1946.3054245201042 -999851.01216571464
 17994.802668586271 2486.3570751423213 -999834.98893838143
 18671.257804721386 3091.2562156710915 -999820.89809475315
 19114.114960290444 3746.0183906472671 -999810.2909829953
 19240.023590708548 4436.6274379228107 -999805.04991183477
 18939.642346083958 5151.4717622867684 -999807.35758769314
 18065.241412304833 5882.3581510109771 -999819.50616863742
 16415.799171075894 6624.3484475851819 -999843.30749633943
 13724.317662741085 7372.610147626312 -999878.63649760163
 9664.7607503926483 8112.6285236094654 -999920.38565981633
 3938.9438140966308 8798.987568215347 -999953.53018998029
 -3334.9355602361843 9326.7147807694673 -999950.94409486291
 -10135.081877739571 9542.7530823876314 -999903.10329498432
 43315.661852924379 2797.2194948717852 -999057.52036674065
 36843.286635704528 2909.1432035222015 -999316.82119120786
 29744.433266383028 3021.8877746435255 -999552.96852339909
 24023.090905292902 3112.9784978672069 -999706.55717976938
 19765.312279388851 3175.6312132873713 -999799.60381913302