# OOMMF OVF 2.0
#
# Segment count: 1
#
# Begin: Segment
# Begin: Header
#
# Title: Oxs_TimeDriver::Magnetization
# Desc: Oxs vector field output
# Desc:  MIF source file: /mnt/gpfs/work/plgrid/groups/plggspinsym/MF/switching-obrazki/p-ap/Anisotropy.mif
# Desc:  Iteration: 31600, State id: 221350
# Desc:  Stage: 0, Stage iteration: 31600
# Desc:  Stage simulation time: 4.65289e-09 s
# Desc:  Total simulation time: 4.65289e-09 s
# meshunit: m
# meshtype: rectangular
# xbase: 1.0000000000000001e-09
# ybase: 1.0000000000000001e-09
# zbase: 3.4999999999999998e-10
# xnodes: 35
# ynodes: 35
# znodes: 5
# xstepsize: 2.0000000000000001e-09
# ystepsize: 2.0000000000000001e-09
# zstepsize: 6.9999999999999996e-10
# xmin: 0
# ymin: 0
# zmin: 0
# xmax: 7.0000000000000005e-08
# ymax: 7.0000000000000005e-08
# zmax: 3.4999999999999999e-09
# valuedim: 3
# valuelabels: Magnetization_x Magnetization_y Magnetization_z
# valueunits: A/m A/m A/m
#
# End: Header
#
# Begin: Data Text
 -0 0 -0
 0 0 -0
 -0 -0 0
 -0 0 0
 0 0 0
 -0 0 -0
 0 0 0
 0 -0 0
 -0 0 0
 0 0 0
 0 0 0
 -0 -0 0
 0 0 0
 19720.077058796694 31417.162616031579 -999311.80341970979
 17368.745147767313 30742.982737415809 -999376.40341584967
 15237.848613531418 30048.146511443574 -999432.29728724388
 13588.972465792063 29563.922572684765 -999470.51697858516
 12139.580479612026 29333.247015270506 -999495.96857882326
 10570.506031069266 29371.507064366055 -999512.67074260488
 8573.9797470042267 29698.488703162137 -999522.12913974351
 5935.5569561063658 30294.718148251945 -999523.38602752995
 3149.9276438279953 30923.644964724612 -999516.78632123745
 0 0 0
 -0 0 -0
 -0 0 -0
 -0 0 0
 0 -0 0
 -0 0 0
 -0 -0 0
 0 0 0
 0 -0 0
 0 -0 -0
 0 -0 0
 -0 -0 0
 0 0 -0
 -0 -0 -0
 -0 -0 -0
 -0 -0 -0
 -0 0 -0
 0 0 -0
 0 0 -0
 -0 -0 0
 0 0 0
 0 0 -0
 0 0 0
 24363.716005826536 29261.35292122552 -999274.82834684011
 22324.100840847605 27628.115649663781 -999368.96176902368
 20713.604218222688 25557.53545267964 -999458.73300595861
 19007.81542137892 25092.143838660533 -999504.42083588964
 16847.12577997367 23977.781969842254 -999570.52793925488
 15013.261763097025 23145.521783307686 -999619.37095707143
 13558.616426083803 22643.425443681368 -999651.65893164347
 12259.049671737079 22438.068196243195 -999673.07095708384
 10864.553760225239 22533.706381021646 -999687.04780462408
 9146.3841540312842 22983.142116340532 -999694.01260353997
 6976.0423303727857 23869.145077174697 -999690.75155604491
 4657.2485013646592 25122.039401285103 -999673.54329936963
 3187.7531136277848 25556.949704307404 -999668.28525861411
 1140.38633985708 27140.152873711864 -999630.98772546439
 -1556.7301525865294 28386.035919335005 -999595.82309852517
 -0 0 -0
 0 -0 0
 -0 0 -0
 0 -0 -0
 -0 0 0
 -0 0 0
 -0 0 -0
 -0 0 0
 -0 0 -0
 -0 0 0
 0 -0 -0
 -0 0 -0
 -0 0 0
 -0 0 0
 -0 -0 0
 0 0 -0
 0 -0 -0
 -0 -0 0
 28763.011161292136 26724.742780983026 -999228.94139042299
 26163.666698228451 24730.335602782703 -999351.72639360465
 23489.896286395782 23442.330038741849 -999449.18927117495
 21027.197226928245 21274.780865676126 -999552.52021887142
 19162.339498474175 19181.567363390972 -999632.3685327667
 17515.775776615439 17687.792036630097 -999690.12179365475
 15903.548085557488 16495.472144685158 -999737.45381325693
 14522.846957005571 15700.626065967226 -999771.26246827084
 13372.496069899093 15249.945212104323 -999794.28660094284
 12318.898044316158 15093.291448595728 -999810.2006402124
 11203.268309470164 15228.899524480754 -999821.26772661682
 9888.2699498504826 15703.272255083555 -999827.79985249531
 8312.6373472725645 16587.110444201684 -999827.86909919872
 6583.513197687822 17872.617803228302 -999818.59698989184
 4861.5893856221865 19297.498209900423 -999801.96614703874
 2616.1648086548689 21149.080800566102 -999772.91024661437
 -338.86769115857237 23146.154265778558 -999732.03445292928
 -3333.1573572289167 24215.137518835654 -999701.21395193669
 -6521.2156199552328 25674.616965584308 -999649.08232364641
 -0 0 -0
 -0 -0 -0
 0 0 -0
 -0 0 0
 -0 0 -0
 0 0 -0
 0 -0 -0
 -0 -0 -0
 -0 -0 0
 0 0 0
 0 0 0
 0 0 -0
 -0 0 0
 0 0 0
 -0 -0 -0
 30618.597186475534 22633.603897626213 -999274.84781762492
 27525.753972526862 21434.345126680633 -999391.26557981991
 24161.037985538416 18875.286154987461 -999529.87339850375
 21385.222325886662 16551.218769813797 -999634.29784261901
 19184.014907806482 14421.912803539608 -999711.94951501105
 17517.089655800246 12637.646089283149 -999766.6935196995
 16165.880832774732 11284.667131396407 -999805.64140468533
 14993.549648747898 10295.125086885755 -999834.5882536649
 13996.837509942614 9645.9182132592396 -999855.51196237525
 13140.309680282198 9287.1803250616049 -999870.53189056239
 12341.355426164995 9181.7646551986636 -999881.68607293814
 11504.264227940455 9325.3023441640253 -999890.33930764801
 10546.349735444795 9744.0247831920587 -999896.90893025661
 9419.627417423013 10475.703832988016 -999900.7601999914
 8116.4547610096224 11528.479259510825 -999900.60372422787
 6588.1614526596841 12864.063570600327 -999895.55054371816
 4593.0850396437809 14567.495542557579 -999883.33901682531
 1966.1571586688003 16620.907887945341 -999859.93001370342
 -1277.2580825928117 18813.577414640673 -999822.19315068924
 -5179.4268847221856 21187.000210202361 -999762.1139847415
 -8537.5902928434571 22306.958769622106 -999714.71387713484
 -0 -0 -0
 0 -0 0
 -0 0 -0
 -0 -0 -0
 0 -0 -0
 0 -0 -0
 0 0 -0
 0 -0 -0
 -0 0 -0
 0 0 -0
 -0 0 0
 -0 0 0
 -0 0 -0
 31486.312414208191 19918.167595811872 -999305.69833769079
 28518.80687907953 18104.642932030849 -999429.2869225404
 24833.620258590436 15398.068062622375 -999573.00423970597
 21675.947137130737 12763.076522141739 -999683.57853542746
 19266.605722397628 10569.688917406329 -999758.51063150575
 17467.672697347443 8780.396236752229 -999808.87426170812
 16128.370924409139 7366.5490968466893 -999842.79244575684
 15090.335937568358 6302.8639856371265 -999866.26889143023
 14243.835560998665 5542.9431102614881 -999883.18764253031
 13536.197654492864 5049.3652912571006 -999895.63218528673
 12921.084645707302 4784.6738860972791 -999905.07172800286
 12341.499371731014 4723.3047281444078 -999912.6850809037
 11736.640361848979 4859.5305300639802 -999919.31486297632
 11051.140547486639 5205.6773931324606 -999925.38382395229
 10239.402559763937 5782.682994812114 -999930.85521579965
 9256.3800430163446 6607.9002041205085 -999935.32545029721
 8022.3813306057637 7699.8888720832929 -999938.17464338453
 6390.0121758109726 9116.7485071318024 -999938.0244000376
 4205.3948605761052 10909.657442139614 -999931.64467805577
 1334.1343088960734 13107.369443341435 -999913.20470924955
 -2312.777447058028 15757.179952725965 -999873.17312768125
 -6328.3289902852548 18460.483145716538 -999809.56327403546
 -9389.4199791388601 20129.310066980473 -999753.29440251563
 0 -0 -0
 -0 0 -0
 0 0 0
 0 0 -0
 0 -0 0
 -0 0 0
 -0 0 0
 0 -0 0
 -0 -0 -0
 -0 -0 -0
 0 0 0
 32102.614945669058 18177.012182583283 -999319.27747930726
 29127.489718536322 15942.298509723829 -999448.56418973533
 25368.008942761375 12864.563011156037 -999595.40172052197
 22005.34459494604 10030.779048712682 -999707.53137151746
 19380.958916710402 7696.3247347832039 -999782.54886602506
 17447.647333243964 5858.1810196340093 -999830.6163134214
 16045.208505309543 4428.320467053094 -999861.46103440877
 15022.8812498714 3335.0911216099221 -999881.58809239161
 14255.777667909313 2526.3394105087104 -999895.18971353502
 13654.741661631841 1958.23561869999 -999904.85214515054
 13162.680224074949 1595.9478386971014 -999912.09453622194
 12735.423747301391 1411.1959892057662 -999917.90538416535
 12330.690587459203 1385.4907656819703 -999923.01427908672
 11906.632447006263 1512.7876566442512 -999927.96919442038
 11422.801420745604 1798.5933401916107 -999933.1400997265
 10838.485229427624 2256.5447707463754 -999938.71574393474
 10104.692835884207 2906.0530311113957 -999944.72349149012
 9149.070650634807 3777.124730091236 -999951.01271762443
 7865.2378830069756 4921.729898466443 -999956.95637754817
 6124.3788903114119 6407.9097222882856 -999960.71456642682
 3785.5545573682402 8319.4578876013711 -999958.22722609248
 727.9222309893222 10747.580393185868 -999941.97813919047
 -3004.209092659773 13650.975894425623 -999902.30802056717
 -6976.646303535048 16651.655826775732 -999837.01109960035
 -9997.4090804084681 18578.494403239445 -999777.42090796761
 0 -0 0
 0 0 0
 0 -0 -0
 0 -0 0
 0 -0 -0
 -0 -0 0
 0 -0 -0
 0 -0 0
 0 0 -0
 32978.620101817418 16894.326934456902 -999313.26036114001
 29783.979045386961 14473.408957327925 -999451.56712337898
 25850.332601412942 11171.593365666811 -999603.39925695956
 22328.492167003387 8127.3508678844419 -999717.65244263771
 19537.171213901867 5646.094446574094 -999793.18889381271
 17460.672204992643 3710.7942903052272 -999840.66477208491
 15968.363851294926 2228.6327957549133 -999870.01382768457
 14910.227915603691 1103.1942018757654 -999888.22778651491
 14157.806092719322 260.64977901410975 -999899.73926805973
 13611.323819236402 -351.95901180544439 -999907.29969769809
 13198.750802750506 -774.00290153281514 -999912.59312839701
 12870.06110846097 -1035.0641933292977 -999916.64161027945
 12587.620464769452 -1157.1430837534588 -999920.10322371207
 12319.027384620433 -1154.4138498344862 -999923.45151664503
 12033.709988132787 -1032.6075627110079 -999927.05911258492
 11700.925735362369 -789.33756941215074 -999931.23027693131
 11286.724503249487 -414.88854206494295 -999936.21682459593
 10748.417654649204 108.15668473471509 -999942.22824123851
 10027.034258045229 808.23194799740577 -999949.40139244357
 9041.5997588352511 1729.9874461073218 -999957.62741090043
 7689.2594325204591 2936.2612259334282 -999966.12625598116
 5847.9677011123404 4509.812765802405 -999972.73105949443
 3389.9853513414537 6546.1071888195447 -999972.82787083276
 227.18683056039174 9107.1942676471463 -999958.50283835025
 -3602.0869722704206 12130.550943254359 -999919.9341463584
 -7718.7047478569784 15198.520569335229 -999854.70272911096
 -10966.615191838206 17119.529471175167 -999793.30616979022
 0 -0 0
 0 -0 0
 0 0 -0
 0 0 -0
 0 0 -0
 0 -0 0
 -0 0 -0
 34696.333175880085 15635.750193714792 -999275.58149893186
 30951.463891672909 13294.213071045115 -999432.4743482091
 26593.599704358665 9963.4188679507788 -999596.67403369548
 22771.202825648219 6818.0924839429581 -999717.45305198792
 19762.766531768564 4214.7568327020635 -999795.81359588215
 17522.749131379136 2173.3214185423685 -999844.10281647951
 15914.742270819866 609.70568351212933 -999873.16657535755
 14789.553946294067 -574.14840937242559 -999890.46372473903
 14014.121262386074 -1462.3013113813495 -999900.72811260505
 13481.822880550006 -2118.1333348883841 -999906.87264514458
 13112.240233673732 -2587.406615293818 -999910.68325279013
 12847.249644826277 -2903.3535168700469 -999913.25559516391
 12645.538372612556 -3090.288675547808 -999915.26664771396
 12476.417291663585 -3165.6892764135623 -999917.15527986118
 12314.735320210175 -3140.8568619496909 -999919.23789482424
 12137.41174704538 -3021.0146039800202 -999921.77529387025
 11920.750933708769 -2805.3843006414158 -999925.00994629692
 11637.468553522733 -2487.0986066811311 -999929.18932601728
 11252.798238890555 -2052.295034017925 -999934.57916850143
 10719.881976401904 -1477.8980188611752 -999941.44825977588
 9975.5636213297348 -728.52604388626696 -999949.97743899177
 8937.5460360154357 246.08610096222515 -999960.02905740449
 7502.5628357584674 1512.8008977497034 -999970.71106324857
 5547.9388518364694 3152.0024249765861 -999979.64242038922
 2942.2056428586516 5241.0459665712697 -999981.93726843479
 -426.4606384551164 7816.1443710477397 -999969.36253992026
 -4564.3500163103026 10776.66610825126 -999931.51274300774
 -9129.9562514163845 13662.794100997593 -999864.97686247656
 -12958.647065771394 15264.695625868299 -999799.51116895152
 0 0 0
 0 0 0
 -0 0 0
 0 -0 0
 -0 0 -0
 37762.576016118255 13700.567113953675 -999192.81538318866
 33164.328445672953 12009.621152649361 -999377.75456456782
 27997.657970437023 8957.3571558024651 -999567.85507585923
 23590.592138794451 5871.6694251876715 -999704.46005842288
 20190.298511319987 3225.4753269252828 -999790.95222698397
 17691.527249730108 1102.6178864590115 -999842.88470607635
 15913.617398760731 -546.86632621396643 -999873.22082277387
 14682.699202300513 -1807.4082226534165 -999890.56982234376
 13851.814460838654 -2760.4073413866649 -999900.24871856696
 13303.822967942924 -3472.5652481417665 -999905.47032458789
 12949.348804910032 -3994.3985377324466 -999908.17535704258
 12722.525875190908 -4362.906321327956 -999909.54710102966
 12576.084027899424 -4605.0407612896579 -999910.3138332509
 12476.393414771672 -4740.4319392555981 -999910.92998946132
 12398.775347547877 -4783.0924146602829 -999911.69229929196
 12323.558310783505 -4742.2437666849519 -999912.81671684654
 12232.986719570699 -4622.6109801931207 -999914.48909576493
 12108.62751759206 -4424.4532350355948 -999916.89922373602
 11928.774443760401 -4143.2783160782446 -999920.2656137466
 11665.506468599639 -3769.0366865030301 -999924.8523370577
 11281.342430870407 -3284.6276353992153 -999930.96888447972
 10725.661782218949 -2663.9185693722893 -999938.92999382189
 9930.9301562485107 -1869.7526222104516 -999948.9390220698
 8808.450569751918 -852.5327186636697 -999960.8414265652
 7243.9823029153094 448.9029706536071 -999973.66125639423
 5094.8093241843335 2100.7878180775683 -999984.81468894996
 2193.0315469661668 4157.0581928074953 -999988.95467890822
 -1626.7108519666003 6615.3633064865462 -999976.79512083041
 -6423.443304851593 9310.1610279642664 -999936.02809266886
 -11840.537166193542 11672.369063286807 -999861.76918615436
 -16435.84378192652 12400.927256641025 -999788.01755289675
 0 0 0
 -0 -0 -0
 0 -0 -0
 0 0 -0
 35430.927266977473 10402.334676683498 -999317.98784284701
 30246.744888173209 7998.9209061041165 -999510.45601734833
 25068.366807702692 5144.0513597603094 -999672.50423386286
 21027.317955250175 2546.9448070439034 -999775.65732106031
 18091.19856851974 389.67194823877429 -999836.26494047872
 16031.454337553365 -1329.2817934333925 -999870.6043692535
 14625.639179317877 -2669.0060632180111 -999889.47743499698
 13693.680463615998 -3699.0687300770633 -999899.39494225639
 13097.233104157651 -4482.170329902563 -999904.18172650377
 12732.470277705899 -5069.0730601099385 -999906.08993991965
 12523.004140427185 -5498.6182768370045 -999906.46540781239
 12413.757697621348 -5799.7086906360719 -999906.12659335625
 12365.715405284063 -5993.6464101215533 -999905.57818487345
 12351.384111757092 -6096.0479196851529 -999905.13625557732
 12350.880728582968 -6118.1496931552238 -999905.00748299109
 12348.658854898453 -6067.5436522485388 -999905.34328931035
 12330.81916431203 -5948.5146151879926 -999906.27864445886
 12282.791812992018 -5762.0801107794123 -999907.96149349457
 12187.115476880228 -5505.7525135372662 -999910.57645452127
 12021.061194992573 -5172.9344349397816 -999914.36375175545
 11753.915931902031 -4751.9204102464519 -999919.62912660162
 11343.744515490283 -4224.5627420786295 -999926.73358101887
 10733.32546198532 -3564.8263035837249 -999936.04182365211
 9844.7776043348222 -2737.5628389428302 -999947.7916889583
 8572.4918397288493 -1698.3032999353754 -999961.8133456693
 6774.5696744857105 -395.53355274867238 -999976.97411437158
 4265.2608717506928 1221.6818477923075 -999990.15747314168
 819.38670576199843 3183.6947052706987 -999994.59633212502
 -3772.057124635417 5452.2091416985195 -999978.02225875144
 -9448.1984338594411 7809.7058970419703 -999924.86719760892
 -14840.782523158226 9624.8321908287708 -999843.54465056118
 -0 0 -0
 -0 -0 -0
 0 0 -0
 38926.011097413611 8666.992521692513 -999204.50804661261
 33636.011318002966 7211.6080745261561 -999408.13057108701
 27527.263294213109 4632.1864921672568 -999610.32038681582
 22539.435401350427 2120.6964917435926 -999743.70540562936
 18908.265330640028 -36.081006081753188 -999821.22211940831
 16386.152896744639 -1801.0523997577316 -999864.11586950033
 14687.510285730817 -3210.0234431847043 -999886.98000879108
 13578.933296722675 -4318.1094701882894 -999898.47809721495
 12884.913859503195 -5179.9710240003615 -999903.56879802339
 12476.906195218196 -5842.7250033144137 -999905.09018422896
 12261.841886769302 -6344.2440130528921 -999904.6943591407
 12173.065511059584 -6713.7554486370736 -999903.36631288507
 12163.482614624249 -6973.3120755264708 -999901.70647388196
 12200.262737388624 -7139.3741243816121 -999900.08647176891
 12260.608350107965 -7224.1450954750289 -999898.73947841581
 12328.290391506498 -7236.532458846832 -999897.81770638702
 12390.798352862023 -7182.7601137068268 -999897.43277664622
 12436.973302607445 -7066.6831105116162 -999897.68660842779
 12454.965991386713 -6889.8705518977549 -999898.69662177842
 12430.319834843895 -6651.446751518255 -999900.61776404316
 12343.964483519481 -6347.6809744732154 -999903.66210304294
 12169.875979126919 -5971.2904182925367 -999908.11468324054
 11872.097473325644 -5510.4963457975891 -999914.34019700252
 11400.680297021632 -4947.8944019594392 -999922.76843251847
 10685.951394606755 -4259.3041784110328 -999933.83219626476
 9630.4592957501936 -3412.8910964527208 -999947.8018517351
 8098.2743867701911 -2369.1711159816109 -999964.40185647586
 5902.9355311611453 -1083.1093617946653 -999981.99095094961
 2801.3090819825397 488.78245104688875 -999995.95687139791
 -1479.3240254448124 2369.1660183904783 -999996.09931879491
 -7086.3824050058583 4504.367477682702 -999964.74630760669
 -13476.333547658312 6556.6111261042979 -999887.69333593315
 -18467.873077766246 7200.0850040352771 -999803.52891951625
 -0 -0 0
 0 0 -0
 36782.768790507769 6069.0258976148498 -999304.85580965655
 30945.736616827173 4241.0185315419585 -999512.06853497133
 24967.951889006988 1915.533207114195 -999686.41688831628
 20375.974615682419 -216.19438914864639 -999792.36490305688
 17150.984683426708 -2008.6145971087572 -999850.8934795172
 14983.872119401101 -3471.4667499081274 -999881.70925110625
 13579.446958475786 -4648.5671365812541 -999896.98941634933
 12709.243866011704 -5587.0324090316344 -999903.62545058038
 12206.603676639892 -6328.9197143981 -999905.46733275254
 11952.340837742457 -6909.1303617198391 -999904.6981918544
 11861.986484108609 -7355.4491216651768 -999902.59057813708
 11876.205500923092 -7689.4017603344428 -999899.90941267088
 11953.804382919498 -7927.3749547766593 -999897.12635205674
 12066.53375552366 -8081.7214309294914 -999894.53670966683
 12195.082056959827 -8161.6937460443487 -999892.32756773336
 12325.896175615546 -8174.1627374231521 -999890.62169169798
 12448.604906149734 -8124.1089738736928 -999889.50944055372
 12553.897768436866 -8014.9211372960008 -999889.07419272407
 12631.709913448505 -7848.5032925622991 -999889.41433576983
 12669.549277106004 -7625.2025203292542 -999890.6634265763
 12650.75883226823 -7343.5246301830375 -999893.00975003012
 12552.455911102808 -6999.6356927200359 -999896.71514150361
 12342.797189411887 -6586.6280721322792 -999902.13105492503
 11977.094604118387 -6093.5754443779979 -999909.70469495282
 11392.157740969906 -5504.3887609547637 -999919.95701974735
 10498.159656284261 -4796.554775849454 -999933.38863452
 9167.5293954180124 -3939.9115407460226 -999950.21551166999
 7221.6061033386768 -2895.982364747214 -999969.73038759106
 4420.2500368730398 -1619.6165244745005 -999988.91905456875
 474.05112896270384 -69.379335314182157 -999999.88523101097
 -4856.1123775742872 1749.4888040300405 -999986.67864202103
 -11371.822962051325 3636.4231179464909 -999928.72649475723
 -17196.013557672097 4900.9657000993311 -999840.1260466252
 0 0 0
 -0 -0 0
 34156.224793614536 3875.9214318934228 -999408.99012411432
 28345.615648370218 1897.748520753202 -999596.38085782749
 22735.012158181893 -186.47920640742134 -999741.50881499017
 18554.714614107146 -1994.5693847977132 -999825.85696638119
 15687.93796484725 -3494.9733808572137 -999870.82853910595
 13814.508961213798 -4724.5907265391179 -999893.41311193118
 12647.413845193563 -5727.1620387502453 -999903.61662412737
 11968.747254803171 -6541.1197455258989 -999906.97709418216
 11621.430190108156 -7198.0418820573868 -999906.56091126846
 11494.40581807835 -7723.1846670834429 -999904.11092938681
 11509.949094540856 -8136.3732029867006 -999900.65531678824
 11614.196678486273 -8452.9186570565853 -999896.82397819962
 11770.283475910699 -8684.4926464305445 -999893.01428421366
 11953.287735235897 -8839.9134891594549 -999889.48131372163
 12146.398077013378 -8925.8226819900829 -999886.39089808823
 12337.915656054536 -8947.2269905990761 -999883.8547383605
 12518.865015717955 -8907.9115786762304 -999881.95659788989
 12681.051367972552 -8810.7123754803852 -999880.77403440408
 12815.430726371609 -8657.6547908093398 -999880.397722058
 12910.633572264365 -8449.9329351268716 -999880.95000062615
 12951.447112271399 -8187.7232222307402 -999882.60371212265
 12916.989240071545 -7869.7974136942785 -999885.60229540197
 12778.220860983251 -7492.9285992259311 -999890.28052713617
 12494.319272217974 -7051.0535733191236 -999897.0820186598
 12007.309601848054 -6534.1742930037644 -999906.56017571653
 11234.265513131353 -5926.9422032821585 -999919.32806326903
 10056.550129994281 -5206.9036265212644 -999935.87492104049
 8306.5110850186556 -4342.4878760347292 -999956.07137145812
 5755.4124023603608 -3291.4629352922097 -999978.02050836326
 2117.0912619849992 -2002.8734341169279 -999995.7532022798
 -2883.20783440064 -433.1973634965089 -999995.74971728132
 -9196.7630336935072 1387.4693895311359 -999956.74630375649
 -15215.510461773589 3096.1984979499807 -999879.44363120547
 -0 0 -0
 39193.619210194549 3476.9424259405514 -999225.5856835196
 33146.774773666919 2014.932118686294 -999448.46358912427
 26376.753385243919 -14.911597344286212 -999652.07280258194
 20926.61591106424 -1825.2928352406939 -999779.34818267601
 17054.842489399354 -3339.3097096595766 -999848.97927553277
 14469.683292452193 -4595.2150317061451 -999884.74949077424
 12828.052224269488 -5638.038075967951 -999901.82198193122
 11848.7499018988 -6505.0409055401842 -999908.6416111124
 11323.168018089738 -7225.2783996891421 -999909.7865398064
 11102.318981378328 -7821.22351691312 -999907.77923563239
 11081.605204698484 -8310.2507634085214 -999904.06427733682
 11188.396263575378 -8705.7287831849953 -999899.50998858013
 11372.833498860564 -9017.841358992031 -999894.66304977902
 11601.1507120643 -9254.2507049236156 -999889.88000981696
 11850.761864698548 -9420.6705445217722 -999885.39863812272
 12106.545946948205 -9521.365143010742 -999881.38054023567
 12357.972636703531 -9559.5825891472323 -999877.93999719352
 12596.836350137972 -9537.9059243197371 -999875.16624053963
 12815.450567183252 -9458.5181088968475 -999873.14228453208
 13005.164288922491 -9323.3532853869947 -999871.96219582728
 13155.054146502833 -9134.1244031831793 -999871.74793659884
 13250.593162108316 -8892.1930700303637 -999872.66723481228
 13272.036687691607 -8598.2708047103715 -999874.95357236022
 13192.17064537435 -8251.9158074714305 -999878.92893048294
 12972.963610187497 -7850.8083660721577 -999885.02690217737
 12560.541994250219 -7389.749289935512 -999893.80655659782
 11877.83735183048 -6859.3274597323725 -999905.92887863389
 10814.366949239324 -6244.1575321524188 -999922.02694220142
 9213.3625085483527 -5520.6378321469683 -999942.31659091834
 6859.0645916316125 -4654.3718891054004 -999965.64443747047
 3474.9913152155341 -3598.2932513786859 -999987.48828224663
 -1232.085112000321 -2296.1141645229891 -999996.60490724677
 -7376.3577784959389 -714.52274900882048 -999972.53902452963
 -14271.189996633015 964.58613456769149 -999897.69612179289
 -19582.218163584443 1621.5594351979544 -999806.93500134896
 37905.563600537593 967.0294894864885 -999280.85796841525
 31413.637190856014 -186.04897125778706 -999506.45259759144
 24652.275241624986 -1708.070018933058 -999694.62728486327
 19440.135060109344 -3124.0401559667253 -999806.14197050675
 15820.048465452253 -4344.7674446514802 -999865.41547470412
 13451.352346905538 -5383.7426592429874 -999895.03270844324
 11987.254445423008 -6269.0032625241529 -999908.49847821333
 11153.322925311742 -7025.1374187522742 -999913.12164206116
 10748.548306549679 -7671.1234240782132 -999912.80748608999
 10630.201696008506 -8221.234317332046 -999909.70098214468
 10698.501668346744 -8686.1625167794846 -999905.04181286343
 10884.501132096251 -9073.8653291990649 -999899.59126058908
 11141.154984285902 -9390.1685288424032 -999893.84406576667
 11436.81705458143 -9639.2388410864896 -999888.13588832249
 11750.43086137727 -9823.995196003787 -999882.70136699581
 12067.897663569951 -9946.493632484031 -999877.70907766558
 12379.275069049747 -10008.282717675595 -999873.28588467045
 12676.599866045779 -10010.722166765141 -999869.53611835581
 12952.181988070966 -9955.2357848173306 -999866.5582277549
 13197.244855298282 -9843.4819679884713 -999864.46010995656
 13400.758502945204 -9677.407380618326 -999863.37439568958
 13548.274566778789 -9459.1696749061412 -999863.4748631058
 13620.4974428931 -9190.898341788441 -999864.99560544617
 13591.24700897718 -8874.2851879379359 -999868.25385504856
 13424.359373375795 -8509.9733179567993 -999873.67548582982
 13068.968932991564 -8096.7279590965727 -999881.81553990894
 12452.530717244234 -7630.3423150459021 -999893.35049038695
 11471.022915197649 -7102.2605395711307 -999908.98262217198
 9976.3446704158378 -6497.9673184135772 -999929.1219720256
 7762.9993775512157 -5795.5818979430396 -999953.0724344661
 4562.4013318198704 -4966.3695992134735 -999977.25957498234
 70.998993115687767 -3983.3144444668756 -999992.06405109994
 -5912.3218934593688 -2858.1539363323732 -999978.43747048068
 -13035.594287132561 -1757.897375934966 -999913.48779701791
 -19140.924081264653 -1157.5256697794498 -999816.12567493576
 36487.867654244772 -1232.1525682603906 -999333.33643689426
 29896.882244240885 -2009.8137232518638 -999550.96772544412
 23255.552511227728 -3068.9670868705084 -999724.84250338469
 18242.570310155512 -4119.6722644944311 -999825.10317000549
 14810.895635718683 -5072.0173913230292 -999877.44849558943
 12600.409244382457 -5915.9689911326423 -999903.11080512684
 11266.477202679194 -6661.6468904973199 -999914.34080732532
 10541.071782780396 -7320.8843247096011 -999917.64183775382
 10229.108186491538 -7903.1685089091961 -999916.44914624188
 10192.421251871099 -8415.4307750554035 -999912.64372138772
 10334.601403255339 -8862.5401160563961 -999907.32140360237
 10589.188793967231 -9247.7597755812039 -999901.16912613867
 10910.975918567796 -9573.092466458902 -999894.64770301338
 11269.631091350207 -9839.5713841458801 -999888.08286229777
 11644.963095723928 -10047.547797118707 -999881.71381307102
 12023.329919902048 -10196.990461124724 -999875.72273916774
 12394.885180457835 -10287.793672042442 -999870.2556445637
 12751.455841952746 -10320.068431706741 -999865.43922743702
 13084.916966299408 -10294.394417804438 -999861.39559018658
 13385.930176100692 -10211.997309664392 -999858.25594644563
 13642.901247666809 -10074.831339956312 -999856.17416657403
 13840.955506897915 -9885.5370592357194 -999855.34159082558
 13960.670894072971 -9647.2661909581493 -999856.00459427573
 13976.216839676779 -9363.3549242286172 -999858.48646066571
 13852.455047759275 -9036.8487543518077 -999863.21307153825
 13540.443039608526 -8669.8669388201706 -999870.73655025719
 12970.697618508568 -8262.8193627818473 -999881.7364165961
 12043.587803950795 -7813.504152319113 -999896.94526269566
 10616.637803663867 -7316.2630989738664 -999916.87619322271
 8490.0857088046469 -6761.7726095773305 -999941.09670311783
 5397.0113401198914 -6139.2264436379855 -999966.59052553773
 1019.2490159776037 -5445.3716845470017 -999984.65441158658
 -4903.5706439138075 -4709.0429137746896 -999976.8896878449
 -12149.497544746662 -4035.194430436321 -999918.05009976623
 -18564.103771829661 -3615.6177724525642 -999821.13468323532
 35315.788328697214 -2897.6787580382183 -999372.00208557874
 28726.766398494801 -3420.1309538541336 -999581.45020630735
 22189.286139820448 -4131.8495312813429 -999745.24925105588
 17312.143998470016 -4871.3241975320925 -999838.26685656456
 14004.785855124659 -5579.2313686691741 -999886.36261851632
 11898.205874379524 -6240.7826911617276 -999909.73859062511
 10651.140638748815 -6854.63958637625 -999919.78034202056
 10000.709894251511 -7421.976888778946 -999922.44702310464
 9755.987910156151 -7943.7217507763808 -999920.85586042434
 9781.7625534174349 -8420.1260682379507 -999916.70583021245
 9983.6767361942166 -8850.7969298802964 -999910.99083495082
 10296.714369878093 -9234.7634162958948 -999904.34383386397
 10676.665659317692 -9570.5531310966217 -999897.20137780358
 11093.832496542176 -9856.3116097613274 -999889.88393822138
 11528.317614964353 -10089.982105593497 -999882.63819014153
 11966.451677716681 -10269.541240427548 -999875.66254857695
 12398.056081850658 -10393.267358964684 -999869.12553543528
 12814.360962273855 -10460.014679959302 -999863.18076326
 13206.436033179456 -10469.457337039388 -999857.98017036892
 13564.013329344607 -10422.276613217276 -999853.68614242703
 13874.545001423372 -10320.259834721748 -999850.48344137287
 14122.300033650285 -10166.297295485534 -999848.59205834731
 14287.226424350203 -9964.2607066689943 -999848.28282578394
 14343.229948910735 -9718.769300291704 -999849.89737356117
 14255.414308523212 -9434.8453840829952 -999853.872751149
 13975.725978212895 -9117.4835618103371 -999860.76559533121
 13436.338787200688 -8771.1520144415663 -999871.25755885965
 12540.099896055111 -8399.2789357783986 -999886.09251652076
 11147.636570283272 -8003.8254658968326 -999905.83005441469
 9062.0081081559274 -7585.2530441411154 -999930.16953450534
 6016.1668342092671 -7143.6625999997586 -999956.38595954771
 1682.9242172051377 -6682.7951082751733 -999976.25372586714
 -4224.1149689838294 -6219.1233710680135 -999971.73927927797
 -11518.955814360621 -5794.8481377601283 -999916.86324014328
 -18025.183644102952 -5485.2718939775932 -999822.48651790456
 34484.954141746712 -4299.8965013901361 -999395.96698601847
 27921.092850302924 -4612.2926944291676 -999599.48946072697