# OOMMF OVF 2.0
#
# Segment count: 1
#
# Begin: Segment
# Begin: Header
#
# Title: Oxs_TimeDriver::Magnetization
# Desc: Oxs vector field output
# Desc:  MIF source file: /mnt/gpfs/work/plgrid/groups/plggspinsym/MF/switching-obrazki/p-ap/Anisotropy.mif
# Desc:  Iteration: 13600, State id: 95350
# Desc:  Stage: 0, Stage iteration: 13600
# Desc:  Stage simulation time: 2.00097e-09 s
# Desc:  Total simulation time: 2.00097e-09 s
# meshunit: m
# meshtype: rectangular
# xbase: 1.0000000000000001e-09
# ybase: 1.0000000000000001e-09
# zbase: 3.4999999999999998e-10
# xnodes: 35
# ynodes: 35
# znodes: 5
# xstepsize: 2.0000000000000001e-09
# ystepsize: 2.0000000000000001e-09
# zstepsize: 6.9999999999999996e-10
# xmin: 0
# ymin: 0
# zmin: 0
# xmax: 7.0000000000000005e-08
# ymax: 7.0000000000000005e-08
# zmax: 3.4999999999999999e-09
# valuedim: 3
# valuelabels: Magnetization_x Magnetization_y Magnetization_z
# valueunits: A/m A/m A/m
#
# End: Header
#
# Begin: Data Text
 -0 0 -0
 0 0 -0
 -0 -0 0
 -0 0 0
 0 0 0
 -0 0 -0
 0 0 0
 0 -0 0
 -0 0 0
 0 0 0
 0 0 0
 -0 -0 0
 0 0 0
 -5651.6650313264981 -21441.251164109432 -999754.13549076731
 -3327.372437012993 -21299.696649496611 -999767.59875248268
 -864.64826112243281 -21308.379376000332 -999772.57681522414
 1041.5414960537807 -21580.22797659981 -999766.57723280077
 2496.9680267079434 -22095.384019974459 -999752.7490113161
 3772.3210357806292 -22808.845312277936 -999732.72736743174
 5182.5073594772393 -23677.461105938077 -999706.21657217189
 7057.6498426704356 -24634.095971900533 -999671.62153096311
 9346.0933802543714 -25459.928953200131 -999632.15362263436
 0 0 0
 -0 0 -0
 -0 0 -0
 -0 0 0
 0 -0 0
 -0 0 0
 -0 -0 0
 0 0 0
 0 -0 0
 0 -0 -0
 0 -0 0
 -0 -0 0
 0 0 -0
 -0 -0 -0
 -0 -0 -0
 -0 -0 -0
 -0 0 -0
 0 0 -0
 0 0 -0
 -0 -0 0
 0 0 0
 0 0 -0
 0 0 0
 -9746.4208530505202 -16465.940107314578 -999816.923289928
 -7520.4933522433503 -16299.761855888801 -999838.86698966671
 -5788.242737935725 -16033.228223397173 -999854.70536410587
 -4709.8220070690631 -16389.915867822729 -999854.58354428108
 -2719.2269519393844 -15700.184775278458 -999873.0469428635
 -665.32236763489982 -15330.643181359374 -999882.25743124017
 989.15039606386017 -15381.835278110562 -999881.20330615831
 2291.8806860102909 -15749.22303209247 -999873.34660786262
 3451.0016546673201 -16351.126485764471 -999860.3558748723
 4730.504040502422 -17151.058581071138 -999841.71923413535
 6420.4601677581841 -18157.436208320261 -999814.52540037385
 8639.6084647542484 -19377.186154403367 -999774.91557965858
 10650.145352644291 -20161.900521856736 -999740.0022862514
 12334.909604238204 -22589.799778763569 -999668.72060248582
 14371.972294409963 -24477.047942889938 -999597.07909555745
 -0 0 -0
 0 -0 0
 -0 0 -0
 0 -0 -0
 -0 0 0
 -0 0 0
 -0 0 -0
 -0 0 0
 -0 0 -0
 -0 0 0
 0 -0 -0
 -0 0 -0
 -0 0 0
 -0 0 0
 -0 -0 0
 0 0 -0
 0 -0 -0
 -0 -0 0
 -14214.954399561208 -11446.22906016408 -999833.44558567402
 -11882.771005236096 -11522.078723750756 -999863.01134461444
 -9432.1246948134176 -11880.218737642865 -999884.94109396776
 -6862.1201493660392 -11086.629545764146 -999914.99536329124
 -4841.2274467662601 -10323.48181940573 -999934.99200694694
 -3354.6927690286993 -9677.5137654720074 -999947.54450608278
 -1789.5296502479921 -8926.1951027860905 -999958.55945364945
 -275.21444065614872 -8486.2238900953162 -999963.95348087349
 1002.4257741940977 -8426.700432431222 -999963.99228291691
 2056.3137507275187 -8673.8347785268707 -999960.2672926524
 3016.9212584409984 -9160.7847352824556 -999953.48802289506
 4066.6900827403706 -9869.1908841149616 -999943.02892868046
 5394.0695383837365 -10846.410442895376 -999926.62700536137
 7071.6328301794392 -12200.676626234736 -999900.56280561094
 8863.2171529340558 -13949.953783203617 -999863.41175739933
 10770.41403226791 -16316.053245902836 -999808.87402945675
 13261.180842457799 -18682.544072892961 -999737.51736624748
 16031.707015625789 -20232.018172158016 -999666.76938410138
 18734.90566850797 -22497.459068191703 -999571.34194867103
 -0 0 -0
 -0 -0 -0
 0 0 -0
 -0 0 0
 -0 0 -0
 0 0 -0
 0 -0 -0
 -0 -0 -0
 -0 -0 0
 0 0 0
 0 0 0
 0 0 -0
 -0 0 0
 0 0 0
 -0 -0 -0
 -16183.121793227527 -7203.0294745573156 -999843.09915877017
 -14041.380235823568 -7530.1326627542585 -999873.0603147354
 -10980.679354537757 -6734.5467591510169 -999917.0318385727
 -8153.1940521303577 -5880.8577301737496 -999949.46919287159
 -5709.8567363303919 -4888.4115908117183 -999971.75008505583
 -3783.860795795973 -4058.1095281889775 -999984.60695379449
 -2309.730704056205 -3394.360783663587 -999991.57169395441
 -1038.3431486924185 -2847.8655934318508 -999995.40574198018
 83.070123974827439 -2534.0871497773596 -999996.7857456702
 1032.0820684696046 -2489.8824016706317 -999996.36763951776
 1835.8011549130431 -2685.61656130457 -999994.70863490331
 2579.0755982864557 -3088.8335485190237 -999991.90370540915
 3379.7249781976166 -3699.5373539818993 -999987.44536240969
 4354.9835857282824 -4565.3493382876268 -999980.09565360227
 5565.53100664269 -5771.6500856431867 -999967.85594333115
 6987.2400521250993 -7377.7780996777174 -999948.37210066279
 8699.6505492340384 -9414.6544698868001 -999917.83680537157
 10945.299879911034 -11755.297656763163 -999870.99837305991
 13776.813806933522 -14281.402935552454 -999803.10108116851
 17212.766055814864 -17004.001023892426 -999707.24946550583
 20501.073554770159 -18335.169202856439 -999621.69221831323
 -0 -0 -0
 0 -0 0
 -0 0 -0
 -0 -0 -0
 0 -0 -0
 0 -0 -0
 0 0 -0
 0 -0 -0
 -0 0 -0
 0 0 -0
 -0 0 0
 -0 0 0
 -0 0 -0
 -16677.087458176688 -3029.8473568194963 -999856.33706993447
 -15317.94440902072 -3359.7178799615467 -999877.02887647611
 -12581.122377962922 -2433.4292442341575 -999917.8935201749
 -9531.401590115991 -1221.6263355539829 -999953.82894052903
 -6838.6071139150863 -183.71173834448916 -999976.5995775793
 -4638.9458605765576 671.44917035463811 -999989.01460831764
 -2922.866326094269 1316.8876225876809 -999994.86131651152
 -1603.4183898658896 1783.327652736361 -999997.12439184065
 -548.13459080956045 2103.1642529715714 -999997.63812150841
 318.70581640400923 2257.6803350438963 -999997.40064967552
 1032.2653888664465 2237.156923844665 -999996.96477392619
 1632.9813374885239 2051.0897957402208 -999996.5631953947
 2183.0443780811529 1707.5438893347425 -999996.15929817921
 2761.2373724431654 1194.3644990708729 -999995.47452056839
 3447.1575838841218 471.20806119998474 -999993.94751546124
 4301.5629066646297 -521.78129283995986 -999990.61210635491
 5371.0500027033277 -1836.0894956253628 -999983.89016885299
 6751.9601912507414 -3503.1189884434384 -999971.06917696807
 8607.3887131856136 -5525.9197325269306 -999947.68716700841
 11086.976625979089 -7920.4153250032505 -999907.16867636004
 14337.450175858479 -10695.98982718403 -999840.00386265398
 18207.779178485867 -13499.148923153125 -999743.09187697736
 21490.243688649269 -15411.927046427201 -999650.25980635756
 0 -0 -0
 -0 0 -0
 0 0 0
 0 0 -0
 0 -0 0
 -0 0 0
 -0 0 0
 0 -0 0
 -0 -0 -0
 -0 -0 -0
 0 0 0
 -16351.945127394903 1375.897581013397 -999865.35133306682
 -15678.636053739749 766.42822814699946 -999876.78888914373
 -13582.250628196554 1512.952728122181 -999906.61236033181
 -10838.699445340897 2711.2512514674199 -999937.58390760818
 -8113.1434093374783 3823.2698433850728 -999959.7789469955
 -5749.1361541139167 4667.2418123211119 -999972.58176779374
 -3830.8432921656413 5261.6823387857794 -999978.81944501039
 -2330.0481412414256 5652.1424346971935 -999981.31190615613
 -1172.9702600897738 5888.7358050598014 -999981.97330321243
 -273.38372052448671 6007.9722564738549 -999981.91460181237
 434.23492095875838 6021.5461014674684 -999981.77604523418
 995.25393910223045 5932.8623698135143 -999981.90514313686
 1451.184385390708 5744.0357950382731 -999982.44990432949
 1850.4037352120224 5450.5378182622671 -999983.43368453276
 2249.5555518488982 5033.7388149073377 -999984.80037116667
 2708.9604367619459 4458.1536354471418 -999986.39310718363
 3288.1777415992242 3676.8882764415189 -999987.83411586692
 4053.1850930804358 2643.2530919066667 -999988.2923833126
 5099.4342114480723 1315.5549637608037 -999986.13244677556
 6559.7658783472898 -347.03421781870281 -999978.42428668065
 8587.5513199047018 -2399.0282327091763 -999960.24852284347
 11344.772390341321 -4903.977042237736 -999923.62065738847
 14893.028597891762 -7856.6483346229015 -999858.22533803678
 18918.643847478768 -11026.35640832619 -999760.22344326577
 22239.619863307511 -13341.701649857538 -999663.64258455543
 0 -0 0
 0 0 0
 0 -0 -0
 0 -0 0
 0 -0 -0
 -0 -0 0
 0 -0 -0
 0 -0 0
 0 0 -0
 -15379.994080077207 6102.6564290434089 -999863.09731213003
 -15425.55867319752 5089.2861708003438 -999868.06694978091
 -14048.557215732042 5431.6065668185856 -999886.56141097296
 -11824.334794492643 6366.464392797594 -999909.82255291543
 -9350.2847505403843 7351.8770812195608 -999929.25853705592
 -7005.8201234909702 8135.5491505038117 -999942.36400125455
 -4977.0746536714751 8658.4064311877664 -999950.1291194295
 -3313.0119385257944 8957.9782804684146 -999954.38824829506
 -1991.056764849083 9093.131711946131 -999956.67438575951
 -958.83450801021513 9117.7384916535466 -999957.97285745153
 -158.16113956994724 9070.2725886891294 -999958.85172352009
 460.13923861303243 8971.1452758982614 -999959.65259820351
 934.83170854572086 8828.2069403456808 -999960.59364951716
 1300.7054788897717 8640.4916455624916 -999961.82430599816
 1594.9998350061171 8397.6011267742942 -999963.46746810782
 1860.6071748614675 8077.671623168636 -999965.64409088052
 2146.6720224078476 7647.203311103236 -999968.45554284682
 2509.5507100081181 7064.2918298985132 -999971.89857324271
 3018.1123946630619 6283.5900151657752 -999975.70345188607
 3763.0347899471453 5257.9684402259591 -999979.0964500464
 4860.93028153662 3935.07020913413 -999980.44309838745
 6450.2652633500502 2250.0989761513356 -999976.66529406072
 8681.5054703787537 123.68038587475174 -999962.30737259786
 11676.358094038851 -2519.2839838911577 -999928.65538990754
 15437.361289919818 -5686.1699575435468 -999864.668516504
 19650.809186373146 -9078.8193830997698 -999765.6829162169
 23165.439362349287 -11549.706054925324 -999664.92721771216
 0 -0 0
 0 -0 0
 0 0 -0
 0 0 -0
 0 0 -0
 0 -0 0
 -0 0 -0
 -13715.312226355501 11002.378450699873 -999845.40698998142
 -14601.447945714326 9566.6692173031806 -999847.62667017197
 -14071.264149916402 9408.1194662384769 -999856.73314397014
 -12498.929953890824 9947.0262174978525 -999872.40856993152
 -10440.934704624713 10669.748920202201 -999888.5654614087
 -8292.0732051953673 11290.753211144907 -999901.87539272301
 -6284.9227954793578 11700.029665252605 -999911.8006360794
 -4531.5462824062724 11892.725137793544 -999919.01080891909
 -3063.4728599046593 11914.3021993605 -999924.32940555003
 -1867.4018661697203 11822.211127242148 -999928.37150184566
 -910.45642674648286 11667.460912551203 -999931.51836760761
 -155.81466368826202 11487.236968369196 -999934.00737679843
 429.0402943305001 11303.429634172566 -999936.02215488313
 871.10981896408884 11124.688785899536 -999937.73929535248
 1195.1429677714966 10948.484544961364 -999939.34932047513
 1428.0592053352889 10761.789385095417 -999941.07053172728
 1602.5907608255368 10541.175432086748 -999943.15604606422
 1759.9155538754542 10253.623889368417 -999945.88148278254
 1952.251228535303 9858.6173186089381 -999949.49691457208
 2246.5365565215202 9310.5961584792731 -999954.13188439503
 2728.5618369863705 8559.7901300078411 -999959.64165721822
 3504.6719805656871 7550.4837484419686 -999965.35313453397
 4699.8072903692782 6217.4454103441212 -999969.62713074568
 6451.5866768024462 4483.7399077090467 -999969.13607660471
 8895.186638842888 2266.2459724312312 -999957.86900441581
 12135.143051162997 -499.16036812831669 -999926.24185089499
 16183.295968207958 -3775.115052882019 -999861.9151852635
 20761.386794680708 -7202.9520735810656 -999758.51199166442
 24737.287460151161 -9582.2077242780324 -999648.06202195107
 0 0 0
 0 0 0
 -0 0 0
 0 -0 0
 -0 0 -0
 -10929.356459688284 15377.203127754206 -999822.02955893346
 -13053.507602280992 13811.564170273728 -999819.40701030986
 -13581.631114913956 13223.39539799305 -999820.32441354508
 -12818.7279744809 13365.960910446816 -999828.5009450654
 -11321.756016859696 13798.613497913324 -999840.69536413136
 -9512.2851382640383 14222.561304070747 -999853.60687522648
 -7660.6798721070763 14493.692207934828 -999865.61440529535
 -5922.4262992315807 14573.220322553323 -999876.265402955
 -4373.5388027742947 14482.821030710074 -999885.5534776632
 -3038.9103786799046 14271.593716041329 -999893.53765114141
 -1914.7124227463332 13993.89985777889 -999900.24734625826
 -984.39655980487873 13697.219987784045 -999905.70411815285
 -228.74914182596854 13416.760950233376 -999909.96504657087
 369.17022741088653 13174.068311324112 -999913.15004727885
 823.46470590799265 12977.767836627136 -999915.44614925142
 1147.797954304054 12824.77849189176 -999917.10037207091
 1359.0820068810694 12701.23779721832 -999918.41239899001
 1481.2467945817975 12583.261650417751 -999919.73049548862
 1548.5911355795879 12437.994665004861 -999921.44599173777
 1608.7593554255632 12225.118797969641 -999923.9762920537
 1725.4287787283554 11898.409856737666 -999927.72275720537
 1980.2228374219505 11406.547014786751 -999932.98245568131
 2472.8746168624402 10692.765376602649 -999939.77301622031
 3319.3205426391714 9693.6608991359608 -999947.50614695158
 4648.0549710762334 8338.5036763618609 -999954.43143246532
 6594.879307152627 6551.8422067674728 -999956.7895317385
 9296.7748533672348 4264.8260102489003 -999947.68925000704
 12879.353472198902 1448.5662762033692 -999916.00842764846
 17403.586868163846 -1798.1645208870948 -999846.92916889954
 22649.612587564814 -5008.050410023312 -999730.92103861843
 27396.987968599326 -6815.0904648585947 -999601.40035526373
 0 0 0
 -0 -0 -0
 0 -0 -0
 0 0 -0
 -10597.181631679523 16500.581315960651 -999807.69678858761
 -12283.781962899206 16192.295042422984 -999793.43780700373
 -12563.543760254692 16228.642826929286 -999789.37207802932
 -11821.46204585654 16505.447199125425 -999793.89038334065
 -10518.29588937343 16806.841551257367 -999803.42844413908
 -8970.0684375723395 16989.567119501815 -999815.4292074698
 -7374.1112155671781 16995.853560624655 -999828.36699381866
 -5844.6162027648788 16828.822997990446 -999841.30299660284
 -4440.5215328735585 16526.340138904681 -999853.57020422211
 -3186.3743688690843 16140.779269960572 -999864.6519719254
 -2087.8187073854333 15725.224222501742 -999874.17125166161
 -1142.3910566444672 15325.343177497156 -999881.90742665483
 -346.11720932097893 14975.41969344563 -999887.80220976926
 303.5715680647279 14697.070591878977 -999891.94614234206
 807.99501686678559 14499.456335880099 -999894.55089525168
 1169.5669842775737 14380.067786979203 -999895.91746516852
 1395.3208585811158 14325.58905842561 -999896.40992346336
 1500.7582733031686 14312.764681341299 -999896.44088364567
 1513.4491510064677 14309.379993822284 -999896.47019872011
 1476.0445463158521 14275.41793363744 -999897.01156434976
 1448.4187156377989 14164.240445826326 -999898.63305027923
 1508.5447495859696 13923.538268175736 -999901.92487805174
 1751.7441588109562 13495.903692038288 -999907.39169982006
 2288.4476289321237 12819.174873765194 -999915.21228702436
 3241.3256980370238 11827.092227901525 -999924.80402135814
 4743.3508135174752 10451.443607732754 -999934.13180547743
 6938.7489325898196 8628.1156515922139 -999938.70281310414
 9985.3110035648424 6312.9421200804218 -999930.21772819257
 14038.347190670096 3523.1318656125163 -999895.25068879698
 19113.390966939529 453.7332024368369 -999817.2195016077
 24271.153417954742 -2172.3124543247277 -999703.05199612281
 -0 0 -0
 -0 -0 -0
 0 0 -0
 -3563.2112538337242 18734.422532845922 -999818.14593351004
 -8372.0077740031847 17979.747220794481 -999803.29974235862
 -10874.709920645289 18023.28349633688 -999778.42642065079
 -11468.051745799892 18375.421187384723 -999765.38632088178
 -10995.055342826843 18737.603600639362 -999763.97763137741
 -9972.7357947630735 18970.109640646275 -999770.31336251914
 -8693.0539804818873 19012.601143301134 -999781.45202352013
 -7324.2529040190593 18858.974548061899 -999795.32625352556
 -5962.787910133814 18539.008747464348 -999810.35717529966
 -4662.0231252335061 18102.141271515135 -999825.27374625101
 -3450.2730760115574 17604.616419321392 -999839.07359956158
 -2342.9122425628452 17100.388030396032 -999851.03265008132
 -1350.2874468765528 16635.435540029725 -999860.70980322268
 -482.20588629936947 16244.766902215828 -999867.92879148573
 250.48872497115059 15951.292098558404 -999872.73867016949
 836.72801099827348 15765.840069762706 -999875.36131916463
 1267.7761909786532 15687.725572558538 -999876.13633384078
 1540.8123955765295 15705.502732890216 -999875.47378714546
 1662.8565138393137 15797.748234809013 -999873.8250694056
 1654.462127605588 15933.873736629828 -999871.67897826456
 1552.7086784599824 16074.993088928208 -999869.58334222308
 1413.0803854095916 16174.8586551019 -999868.17988738464
 1309.8697862620527 16180.848850541399 -999868.22350328683
 1334.931719098322 16035.036298264589 -999870.53940408654
 1595.0883270380405 15675.41241159456 -999875.8608642153
 2209.2223815570987 15037.438513711024 -999884.4907185107
 3306.9831492279914 14056.266917763724 -999895.73717602564
 5031.7021316761775 12670.5425494172 -999907.06534415542
 7549.0308150091523 10830.431551457141 -999912.85314579471
 11055.089289122188 8517.6912721743192 -999902.61222591146
 15740.691215309917 5802.2954459957764 -999859.27210164012
 21479.644627813803 3034.5212107075076 -999764.68058622896
 26545.773871858186 1669.1453889441625 -999646.20533627551
 -0 -0 0
 0 0 -0
 -2956.957335183828 18596.543729762401 -999822.69676409382
 -7005.4394150612588 18670.070927250585 -999801.15636569122
 -9495.5859832823498 19103.804713143803 -999772.41334831587
 -10383.530411391574 19667.9470840547 -999752.64648496639
 -10258.93726129292 20121.775840926901 -999744.90163404995
 -9562.0173023291973 20361.519365907367 -999746.95616151881
 -8558.6461641489586 20364.379991647726 -999755.99103150785
 -7404.0869344852381 20151.376730968255 -999769.52419670857
 -6189.2979618435593 19768.060983458723 -999785.43515881151
 -4968.6473627217401 19271.909937192067 -999801.93340018974
 -3776.7421270841705 18723.083637412725 -999817.57453948166
 -2638.9338642257562 18177.800077293148 -999831.28757426387
 -1577.6446732714153 17684.00287689023 -999842.38111791154
 -615.54041790755139 17278.921821533029 -999850.51881302695
 223.83085349708387 16988.062524751324 -999855.6673997523
 917.4144014520059 16825.139986113747 -999858.0264293846
 1445.4833355945968 16792.534224326653 -999857.95059710927
 1795.3423370147661 16881.941725990739 -999855.87800915248
 1965.3135239013288 17075.04411335877 -999852.27929493645
 1968.4624607845358 17344.126117161446 -999847.64161584782
 1835.5724183507891 17652.680083660896 -999842.49437586975
 1616.9265358508746 17956.078688153768 -999837.46918522834
 1382.5411445395619 18202.443938530385 -999833.36592386663
 1220.7057967920373 18333.833673651912 -999831.17595931375
 1235.1214338851482 18287.838228839297 -999832.00061208243
 1541.6230862412506 17999.583032112962 -999836.805888306
 2266.3671117353661 17404.073335780169 -999845.96904295089
 3548.1776679814411 16438.924769067664 -999858.57609347615
 5547.5783074028095 15048.267894119854 -999871.37873243971
 8460.5862630363645 13191.276407879992 -999877.19681309687
 12510.925715098791 10869.481974188577 -999862.65611801122
 17773.929049917384 8238.3703655759236 -999808.08993518772
 23169.254030252891 6035.7343085586308 -999713.33670159569
 0 0 0
 -0 -0 0
 -1029.2671928152029 18113.665238848433 -999835.40432446206
 -5189.7560375194516 18622.925517210631 -999813.1090746168
 -7965.0092320628382 19409.466196444806 -999779.89140105341
 -9248.1799824997943 20181.110739653916 -999753.5666034529
 -9523.9333934238421 20760.811927492319 -999739.1076580073
 -9179.1930254247654 21077.143413782709 -999735.71329672751
 -8461.2234213555475 21125.613245707857 -999741.02454746072
 -7519.629648391141 20939.266674567811 -999752.47050511569
 -6445.4043816160556 20571.154429191338 -999767.61518255214
 -5296.9594959210926 20083.263514821749 -999784.27910559415
 -4116.2601456292741 19538.78051566226 -999800.62635426153
 -2938.5263925308586 18996.552629808495 -999815.23095561203
 -1797.6286145957949 18507.333836937909 -999827.10861709097
 -728.37316701863426 18111.55311642577 -999835.70706203545
 233.57863774919684 17838.298805480132 -999840.85760522215
 1053.5783080802416 17705.176212165665 -999842.69598174526
 1701.105409405792 17718.676098903969 -999841.56482799212
 2153.5933662096018 17874.750674205257 -999837.91452612344
 2400.4458105695549 18159.37390678978 -999832.22342512233
 2446.7495359937684 18548.99283529547 -999824.95882104489
 2316.2235899512925 19010.882501661872 -999816.5939084976
 2052.9787594856853 19503.531581789575 -999807.68027358723
 1721.7361538308642 19977.240239352868 -999798.95253847702
 1406.3348051815146 20375.133001871181 -999791.41633521335
 1206.7323353116758 20634.707267153826 -999786.35350412223
 1235.3244771814573 20689.89467790307 -999785.17804158956
 1614.2412067393375 20473.413391780377 -999789.09454415215
 2476.0856687828145 19919.101793071546 -999798.52889645624
 3970.5951708435628 18964.217361160263 -999812.27879730903
 6276.3403934492489 17553.34657761957 -999826.2286893616
 9599.4800257827319 15652.923730237289 -999831.40376862045
 14061.762617547574 13318.717003160174 -999812.42171193147
 18925.259505747093 11006.889881817258 -999760.31273889332
 -0 0 -0
 10913.814222850639 17262.998562860634 -999791.41701643344
 3103.7747401198058 17412.25129223138 -999843.57780969853
 -2723.6191359507911 18083.84753436266 -999832.76419467095
 -6209.7248218065151 19083.280631652782 -999798.61358074076
 -8008.8583179565976 20038.633955607904 -999767.1285542628
 -8721.2734899912066 20770.808347088892 -999746.22425359581
 -8743.107641335293 21216.514053024424 -999736.67412984802
 -8318.1475058694396 21375.830378732113 -999736.90653976053
 -7594.5153104210585 21284.070188900605 -999744.62323805143
 -6664.837280933546 20995.545426625282 -999757.35406960489
 -5592.0420080519989 20573.270982494676 -999772.70896302257
 -4425.1857140068387 20081.793362499135 -999788.54729724838
 -3208.6698280468663 19581.986110099875 -999803.10574528528
 -1986.9879935349634 19127.39851809894 -999815.08015464689
 -806.31219783606309 18761.95449454448 -999823.65391312086
 286.21141995305555 18518.801190941678 -999828.47133169475
 1244.7964535528415 18420.027430290185 -999829.56201107427
 2028.4099311324846 18476.934103870768 -999827.22930477955
 2604.7118381276764 18690.533315020642 -999821.92386476509
 2954.067961180333 19052.030873911477 -999814.12952711375
 3073.2036914120354 19543.144850151213 -999804.29130327154
 2978.0922219141803 20136.256012736103 -999792.80961632601
 2705.6934587555374 20794.498925037245 -999780.10984284128
 2314.2062604314328 21472.004747747396 -999766.77153298946
 1881.6309094864491 22114.522941000228 -999753.67333169235
 1502.7427753536115 22660.596019697012 -999742.08631635737
 1285.1207416370578 23043.291739378779 -999733.64211198443
 1345.6651635268433 23192.288283048267 -999730.11705633008
 1809.9355097704799 23035.958284316304 -999732.99873484927
 2817.2052535388548 22503.351570899013 -999742.79818493128
 4533.1466886415756 21527.375016791935 -999757.98206665274
 7165.424784489981 20055.066545231286 -999773.19977759162
 10945.359947329356 18084.802667696888 -999776.5445378751
 15859.4314616465 15814.68732256049 -999749.15558784176
 20311.566375900689 14445.100360881941 -999689.341419084
 11855.620820385526 15612.668470283128 -999807.8259536681
 5147.6293471593845 16130.081933179541 -999856.65090998576
 -656.28703573076382 17069.111057801725 -999854.09672362881
 -4475.0861059939343 18247.577278637258 -999823.4841849854
 -6697.438871509371 19370.444037658086 -999789.94304321089
 -7819.8632358001551 20268.528687689955 -999763.99039163732
 -8201.1246530597909 20876.643598810628 -999748.42200749344
 -8070.5405323867835 21190.958931159817 -999742.87176008045
 -7571.1057638465254 21242.69979577473 -999745.6806922945
 -6795.1937073656036 21082.772623664659 -999754.64091994998
 -5808.7932787168438 20771.965446671089 -999767.36462645524
 -4666.6773954452965 20374.023689772643 -999781.53677729785
 -3421.1149946026908 19950.485916836165 -999795.1160532221
 -2126.0362721130268 19556.896725068778 -999806.4851561297
 -837.97907249437344 19240.273862409267 -999814.53762824112
 385.22050553287403 19037.699804249605 -999818.69235943269
 1487.2373077520936 18975.829330773762 -999818.83660311159
 2416.948256437985 19071.01021918649 -999815.21039157291
 3132.4880142232446 19329.697059762701 -999808.25678247842
 3605.2381936128668 19748.867291383103 -999798.47194235842
 3823.377955781219 20316.258589930836 -999786.29287358909
 3794.6574467253649 21010.366390885465 -999772.05656038539
 3548.0647044797925 21800.285523314127 -999756.04963808786
 3134.0757009157492 22645.575191641645 -999738.64359328453
 2623.2625820225221 23496.383475488499 -999720.48016282951
 2103.2684281630077 24294.018411335277 -999702.644255455
 1674.6245997591316 24972.020922489388 -999686.74783828994
 1446.6349737072946 25457.573499167174 -999674.85674032418
 1535.5532170428551 25672.909046179433 -999669.21720008156
 2068.3364327147879 25536.518932193845 -999671.75021865417
 3195.7311206637305 24965.030752457584 -999683.21709536249
 5115.4028785900027 23880.025115467088 -999701.74404863082
 8083.7297853175169 22234.725775748298 -999720.09596808394
 12277.785206193106 20121.428637127821 -999722.15345066309
 16886.856397070715 18184.868778067474 -999692.0248899404
 13636.344013797256 13454.943690340488 -999816.49046823953
 7136.89392028988 14366.658983517969 -999871.32364860934
 1326.2059262656207 15622.299624946978 -999877.0849120752
 -2730.2688241440724 16999.999368968511 -999851.76183952531
 -5304.647407994772 18291.841184725094 -999818.61818129267
 -6798.194349907144 19361.727954168338 -999789.43185263255
 -7521.0127492956326 20148.222334886712 -999768.71500561025
 -7680.3243847910235 20642.379331134602 -999757.42297464027
 -7409.6139337404556 20868.450789088834 -999754.77262327506
 -6798.0883916071762 20870.89071525944 -999759.06693311466
 -5912.4787455760006 20705.512580534443 -999768.13529130875
 -4811.239545042019 20432.957901840105 -999779.64882539096
 -3552.6928101805493 20113.589540203873 -999791.38918556634
 -2198.6363706038264 19803.543986243243 -999801.47311538528
 -814.67231114804008 19551.907851665095 -999808.51127022586
 531.71092023988547 19398.991285299737 -999811.68047818379
 1774.4539374850085 19375.551734077875 -999810.70173719572
 2852.9501475605794 19502.715298645791 -999805.73351598438
 3716.2435213691897 19792.268691229485 -999797.20725462318
 4326.9937496040029 20247.017670186684 -999785.64472618536
 4664.8953333280851 20860.975672603567 -999771.50311734539
 4729.2786291260536 21619.278383195753 -999755.09037255601
 4540.6248711934095 22497.841751003281 -999736.58022617444
 4140.7208268062659 23462.903232455694 -999716.13301123574
 3591.2205555280343 24470.640126829509 -999694.09866553941
 2970.5515026044577 25467.054041576532 -999671.24845231685
 2369.4874232881725 26388.195324832901 -999648.9627248405
 1886.3938618812592 27160.614760743596 -999629.30255370971
 1624.1651048534748 27701.726128511331 -999614.91408302484
 1692.1825004160303 27919.805242467493 -999608.73395224393
 2217.9076692377189 27714.266615635268 -999613.42543581722
 3372.180509524675 26980.595953107149 -999630.26957001793
 5400.453130107705 25637.542023331043 -999656.71685083548
 8579.4919278255402 23738.187448828081 -999681.39463276218
 12554.444796645086 21827.254716004525 -999682.92816643149
 15988.688252813306 11243.724443863137 -999808.9520046243
 9419.3998012476368 12378.52931891695 -999879.01614109543
 3430.3408177717456 13876.362449952001 -999897.83444461529
 -898.13619213322318 15444.329734278706 -999880.32585426921
 -3803.5120958527359 16903.903900449721 -999849.88439698354
 -5640.6495597610283 18144.74617310776 -999819.45933196216
 -6685.8942657741454 19112.778056711642 -999794.9792496569
 -7126.7907082327183 19796.007763168091 -999778.63896506676
 -7086.2792705235315 20211.607853887701 -999770.61146748089
 -6648.4825434054119 20396.225275539626 -999769.86935713328
 -5878.7245301486382 20398.786257462307 -999774.63966492016
 -4836.9685253111638 20274.761425050579 -999782.74529251736
 -3585.5234499934168 20081.358441401357 -999791.91988370148
 -2192.1948635645485 19873.542288766446 -999800.09831894748
 -730.06044942394112 19700.983972761864 -999805.65023520682
 725.04117431691179 19606.013186627166 -999807.52075698122
 2098.3525073653313 19622.530759740086 -999805.25763937517
 3320.5974002529301 19775.679209442831 -999798.92785735219
 4332.3619378589547 20081.980883576176 -999788.95007087931
 5088.0603298859514 20549.620585130277 -999775.88725468225
 5559.214986482084 21178.612099010978 -999760.25201959966
 5736.8411040611354 21960.680156475286 -999742.37540539016
 5632.7261054611727 22878.821019516814 -999722.37743554474
 5279.3708454006583 23906.607294458299 -999700.25626241858
 4728.3668952184353 25007.385068451928 -999676.084158535
 4047.0980050518874 26133.517226794316 -999650.2689816549
 3313.96526734483 27225.766860292606 -999623.81686966412
 2612.9308002027919 28212.765459174385 -999598.52563805785
 2029.1472369527419 29010.354216451015 -999577.05151215172
 1648.8865133379927 29520.620272168482 -999562.81150911807
 1569.0649319713993 29631.342456304934 -999559.66384177224
 1924.2743474328549 29220.315197859178 -999571.14321491588
 2938.5404231960702 28181.705327173335 -999598.4976304404
 4965.7325250706372 26529.161189298702 -999635.7061985539
 8038.5221160438323 24727.552780496204 -999661.90799473703
 18672.238625726452 9006.5976115139092 -999785.09125920082
 11957.029761356856 10262.557689885947 -999875.8469674862
 5699.5707179781766 11936.976274271425 -999912.50791809696