# OOMMF OVF 2.0
#
# Segment count: 1
#
# Begin: Segment
# Begin: Header
#
# Title: Oxs_TimeDriver::Magnetization
# Desc: Oxs vector field output
# Desc:  MIF source file: /mnt/gpfs/work/plgrid/groups/plggspinsym/MF/switching-obrazki/p-ap/Anisotropy.mif
# Desc:  Iteration: 46900, State id: 328450
# Desc:  Stage: 0, Stage iteration: 46900
# Desc:  Stage simulation time: 6.90416e-09 s
# Desc:  Total simulation time: 6.90416e-09 s
# meshunit: m
# meshtype: rectangular
# xbase: 1.0000000000000001e-09
# ybase: 1.0000000000000001e-09
# zbase: 3.4999999999999998e-10
# xnodes: 35
# ynodes: 35
# znodes: 5
# xstepsize: 2.0000000000000001e-09
# ystepsize: 2.0000000000000001e-09
# zstepsize: 6.9999999999999996e-10
# xmin: 0
# ymin: 0
# zmin: 0
# xmax: 7.0000000000000005e-08
# ymax: 7.0000000000000005e-08
# zmax: 3.4999999999999999e-09
# valuedim: 3
# valuelabels: Magnetization_x Magnetization_y Magnetization_z
# valueunits: A/m A/m A/m
#
# End: Header
#
# Begin: Data Text
 -0 0 -0
 0 0 -0
 -0 -0 0
 -0 0 0
 0 0 0
 -0 0 -0
 0 0 0
 0 -0 0
 -0 0 0
 0 0 0
 0 0 0
 -0 -0 0
 0 0 0
 18941.579901451576 34077.837036264187 -999239.66973582795
 16539.31106854367 33728.717758951432 -999294.16329112754
 14393.948719578559 33274.965849699591 -999342.57934301964
 12781.861153516875 32900.806352071071 -999376.8863481062
 11410.062420003189 32660.398063100725 -999401.37526117673
 9939.3599136946359 32577.563378180643 -999419.78742110496
 8038.36425944025 32669.520638331036 -999433.88331659744
 5473.3346228229721 32912.109550528505 -999443.26284839213
 2741.7763811204809 33130.310866954926 -999447.27983227558
 0 0 0
 -0 0 -0
 -0 0 -0
 -0 0 0
 0 -0 0
 -0 0 0
 -0 -0 0
 0 0 0
 0 -0 0
 0 -0 -0
 0 -0 0
 -0 -0 0
 0 0 -0
 -0 -0 -0
 -0 -0 -0
 -0 -0 -0
 -0 0 -0
 0 0 -0
 0 0 -0
 -0 -0 0
 0 0 0
 0 0 -0
 0 0 0
 23860.87907195988 32658.425027189507 -999181.70806147985
 21915.568279561681 31440.393597519324 -999265.33489229833
 20418.376890900556 29576.394902261109 -999353.95468759036
 18574.160720595766 28884.93836131116 -999410.15648700937
 16230.464963185053 27846.019441694621 -999480.45063839632
 14284.743206877218 27127.937066606875 -999529.9000740418
 12803.810064573301 26682.125561560995 -999561.96737538348
 11535.027210123495 26452.255018742067 -999583.52394969214
 10193.838776807961 26441.771529973528 -999598.37853477395
 8514.7622493045019 26711.921706586349 -999606.90877093235
 6338.1985460112683 27376.058909537187 -999605.11135036359
 3994.3429684386751 28464.254332836859 -999586.83037019148
 2638.5590437260657 29033.640103242844 -999574.95254159335
 933.70058669868695 30307.68170358982 -999540.18059954362
 -1491.792784782361 31058.186616546391 -999516.46489609138
 -0 0 -0
 0 -0 0
 -0 0 -0
 0 -0 -0
 -0 0 0
 -0 0 0
 -0 0 -0
 -0 0 0
 -0 0 -0
 -0 0 0
 0 -0 -0
 -0 0 -0
 -0 0 0
 -0 0 0
 -0 -0 0
 0 0 -0
 0 -0 -0
 -0 -0 0
 28630.934292060603 30564.143772865729 -999122.66650146386
 26191.467756405604 29024.887457422705 -999235.48922406114
 23431.840416400311 27822.609175517828 -999338.20665146515
 20879.92949060391 25858.109702041729 -999447.54074793996
 18964.032183910294 23835.285416686813 -999536.01468502998
 17190.408973807753 22224.929145825936 -999605.19324570161
 15400.093035732965 20970.876906211568 -999661.47242767888
 13882.18194529963 20164.049396069404 -999700.30315909686
 12666.558759976737 19696.826879460514 -999725.75904598006
 11603.52045572074 19488.44976358167 -999742.74622967176
 10503.716370172075 19531.406529084536 -999754.06780938408
 9198.0494613574592 19886.644327722668 -999759.92981489759
 7607.871242676124 20663.416714433577 -999757.54235956655
 5875.040251247432 21910.937350529279 -999742.66425239039
 4253.9987526516816 23362.762533457138 -999718.00264945591
 2200.2134180284957 25061.700416674877 -999683.48502570554
 -592.48826867817218 26792.956230206772 -999640.82872504648
 -3360.8392859526598 27722.483779273367 -999610.00827942987
 -6170.6793771627672 28671.667548683268 -999569.83657771617
 -0 0 -0
 -0 -0 -0
 0 0 -0
 -0 0 0
 -0 0 -0
 0 0 -0
 0 -0 -0
 -0 -0 -0
 -0 -0 0
 0 0 0
 0 0 0
 0 0 -0
 -0 0 0
 0 0 0
 -0 -0 -0
 31251.581214361882 27120.205178409902 -999143.54981788422
 28024.732558096264 26141.371165697165 -999265.35168523889
 24544.166304568043 23873.059009035991 -999413.65857885126
 21591.524470990062 21653.69718139738 -999532.35238755262
 19196.997971101482 19573.970355134396 -999624.09682511853
 17364.94114913169 17768.220742998135 -999691.32693572738
 15849.841885005253 16315.852740727849 -999741.25425610144
 14513.356167356433 15227.800305606064 -999778.71381151734
 13387.12151100433 14503.566814184034 -999805.19678951241
 12455.173000884251 14076.922472739941 -999823.33885502722
 11628.443411699853 13893.658958875685 -999835.85930119327
 10791.648864775176 13946.01378267602 -999844.51241898234
 9841.6016905864726 14272.381935148738 -999849.70970144344
 8721.8891183409214 14935.404924086517 -999850.41997788893
 7442.2086112790757 15964.221555363822 -999844.86654736463
 5982.7652087598326 17298.160477833007 -999832.476050133
 4083.7403492672051 18945.347846527922 -999812.18079183926
 1544.2860147604435 20898.483506616085 -999780.41017406853
 -1577.563199944186 22954.102118993374 -999735.27520552208
 -5321.8347536914416 25010.391755520388 -999673.02573345928
 -8553.7179198103986 25880.599803477096 -999628.44520529767
 -0 -0 -0
 0 -0 0
 -0 0 -0
 -0 -0 -0
 0 -0 -0
 0 -0 -0
 0 0 -0
 0 -0 -0
 -0 0 -0
 0 0 -0
 -0 0 0
 -0 0 0
 -0 0 -0
 32839.722749810026 25124.234351259158 -999144.79704294039
 29748.220876684245 23451.98515606303 -999282.26630262588
 25799.115187820469 20907.617337802731 -999448.48651282757
 22330.326152593825 18392.53827781733 -999581.44794189616
 19620.533071996691 16239.125033466955 -999675.61013566714
 17552.854704456298 14438.685895764074 -999741.67745539534
 15987.426440827165 12969.458687186081 -999788.07521252264
 14757.540468395713 11811.883245423976 -999821.33124549815
 13749.820192124353 10947.259153044624 -999845.53805161349
 12921.010553684124 10353.509360051465 -999862.91676919523
 12231.485018160958 9991.886895887681 -999875.2687063074
 11620.016950574303 9831.6369761427013 -999884.15034964832
 11013.834001526027 9867.3603935652591 -999890.65935203666
 10344.660351365777 10119.821540031637 -999895.28312429448
 9560.0844771663251 10623.258983920579 -999897.87036144349
 8617.5914934400589 11402.853134772655 -999897.85081139102
 7439.9140511247761 12466.472290507347 -999894.61182043701
 5865.0886621969357 13848.537039488747 -999886.90298295766
 3719.9555689130802 15596.917796756421 -999871.44077916653
 869.05686522278177 17730.004489497285 -999842.43342687108
 -2774.30313295629 20257.76324788194 -999790.94128238596
 -6747.238120814478 22803.040120402398 -999717.20808387036
 -9636.4611268746485 24313.075762286855 -999657.94798217237
 0 -0 -0
 -0 0 -0
 0 0 0
 0 0 -0
 0 -0 0
 -0 0 0
 -0 0 0
 0 -0 0
 -0 -0 -0
 -0 -0 -0
 0 0 0
 34048.573455767073 24144.876234706673 -999128.48002508574
 31016.355857979761 22032.509070364387 -999276.01502955926
 26990.963772863586 19051.567422465661 -999454.11383082473
 23227.812878567744 16262.981619616694 -999597.91123117018
 20188.667042537705 13951.788722881533 -999698.83730775514
 17881.709690892083 12109.084181013022 -999766.78007364681
 16161.270089128575 10645.956534419724 -999812.72094256419
 14877.266124498658 9490.3890222421178 -999844.28761125961
 13899.068893263597 8593.4978878567999 -999866.47492450301
 13133.171179356654 7922.163089477498 -999882.37265528261
 12522.507455579685 7450.2387777507993 -999893.83473905839
 12022.578532131418 7152.485326425257 -999902.14499174571
 11586.477112319244 7011.2229219563251 -999908.29394563183
 11163.851497799287 7023.1543243224569 -999913.01807860867
 10704.820916903862 7199.9541377043997 -999916.78027201444
 10161.306986497775 7562.9857076147355 -999919.77132543619
 9479.4095779896543 8136.3283547724004 -999921.96743293712
 8579.9866569875994 8947.8811726628119 -999923.15667329472
 7342.953448354232 10044.271020949955 -999922.59383129887
 5622.5732306670125 11493.675630882519 -999918.13769466034
 3265.6941238798195 13380.171752228402 -999905.14862449316
 152.21082955179048 15791.318408732393 -999875.29777206585
 -3625.7444251171828 18679.760416802324 -999818.94387340674
 -7517.8605156395124 21615.092432523685 -999738.1004805211
 -10269.036074610196 23427.028569697122 -999672.80708764552
 0 -0 0
 0 0 0
 0 -0 -0
 0 -0 0
 0 -0 -0
 -0 -0 0
 0 -0 -0
 0 -0 0
 0 0 -0
 35381.815484210427 23542.931650121616 -999096.52061367885
 32223.283240722925 21287.030602490169 -999253.9829019031
 28076.804992916619 18081.061131818315 -999442.22857038479
 24149.391851168341 15053.036841882998 -999595.02447493991
 20883.571954267834 12565.47638233211 -999702.94849305891
 18346.176239458509 10621.638790224499 -999775.27405252482
 16444.223496360977 9122.4852343133043 -999823.16825364251
 15038.865263322465 7962.7187321216334 -999855.20333795587
 14001.575803762735 7063.2161337929538 -999877.02586511034
 13228.463951800506 6370.6779916097075 -999892.20529185201
 12643.2698750455 5849.9307446895436 -999902.9583100297
 12192.874390607487 5476.5142652067916 -999910.66681258974
 11836.251607189679 5232.3170670736154 -999916.2594967644
 11535.709464812531 5106.3512797721451 -999920.42312563595
 11253.406824405827 5096.7878678572188 -999923.68888244382
 10950.458032310753 5211.2279135564058 -999926.46258238179
 10585.0064541048 5465.0871487264712 -999929.04271294351
 10106.539280722016 5880.2679747694037 -999931.63781946211
 9446.5434017019761 6487.6314985012195 -999934.33457167551
 8511.1433498098795 7334.0173192067632 -999936.8843226257
 7182.6117954022448 8487.2802946807842 -999938.18617002305
 5326.4443066426211 10037.6117168327 -999935.43558675342
 2813.4181761663153 12087.858867033605 -999922.98120714119
 -416.99312052263741 14699.031155420093 -999891.87645456428
 -4251.452619795059 17772.832317653374 -999833.01184849383
 -8197.3728172195606 20812.955512800232 -999749.78067600389
 -11061.283168143937 22619.762304187458 -999682.94692266115
 0 -0 0
 0 -0 0
 0 0 -0
 0 0 -0
 0 0 -0
 0 -0 0
 -0 0 -0
 37391.098147637611 22730.610267777094 -999042.15383344481
 33820.851830066633 20662.702632685199 -999214.29268270661
 29350.471254255473 17493.294274907268 -999416.09677479404
 25168.728096546569 14396.851056080573 -999579.54451142659
 21681.33979663932 11801.279933326932 -999695.27822059742
 18934.820718122228 9762.6101823197623 -999773.05625166779
 16846.220001161204 8202.7719328361964 -999824.44429224206
 15292.468723160389 7015.5991656633078 -999858.45086627023
 14150.293820072004 6107.3887068380709 -999881.22744053416
 13314.614556079652 5408.5353619510051 -999896.72905978723
 12702.917124516889 4871.4267331636265 -999907.44826614379
 12253.731105361236 4464.555251795211 -999914.95329372946
 11921.9861443225 4167.0678434071806 -999920.24771576794
 11672.531828488009 3965.3340422821607 -999924.01117617241
 11474.557335869868 3852.0033085863838 -999926.74561912601
 11298.100124402092 3826.2072254437999 -999928.854005047
 11111.802041901445 3893.6322961973242 -999930.6813389234
 10880.335069338689 4066.3083501498886 -999932.53944712738
 10560.374518100234 4363.0135040579862 -999934.71917080716
 10095.280781932424 4811.5046703620892 -999937.46540908294
 9410.4105935502466 5452.6252501845229 -999940.85477609234
 8411.1281875210607 6344.2780171033864 -999944.49998940178
 6983.809002150314 7563.311842841922 -999947.00995892228
 5003.0860819212457 9200.5392207433015 -999945.15810003516
 2352.0971548363855 11337.698049486451 -999932.95987376745
 -1037.7397103352976 13995.004029785834 -999901.52663074795
 -5092.0720958890197 17019.493708606384 -999842.19136605412
 -9361.0387285996112 19862.653520277941 -999758.89390845364
 -12664.723950694268 21304.841603420162 -999692.80706200236
 0 0 0
 0 0 0
 -0 0 0
 0 -0 0
 -0 0 -0
 40621.329417964771 20800.286945404572 -998958.08503625728
 36367.751305804559 19584.272256556003 -999146.55729034077
 31233.831997923869 16850.735263074475 -999370.05181255005
 26551.933248261372 13923.468304609807 -999550.4648946696
 22704.212365655829 11359.745973333709 -999677.68551282387
 19687.93342036238 9294.0934518149043 -999762.97446171939
 17385.77605144681 7694.6865327339483 -999819.24695929512
 15660.655403128158 6476.9997054328132 -999856.38586106966
 14385.461672165464 5552.2708230544813 -999881.10832297755
 13452.440996206102 4846.0524606049212 -999897.76857776439
 12775.466152070032 4302.7531381346598 -999909.13276158727
 12288.431554207864 3883.6370300652143 -999916.95245823101
 11941.838840095599 3562.8036781460301 -999922.34644249664
 11698.52942872936 3323.4175126823247 -999926.04691809183
 11529.17789897098 3155.1183394548411 -999928.55909071723
 11408.369198510341 3052.7814352668202 -999930.26238720224
 11311.65547008127 3016.1446371285815 -999931.47231300513
 11213.229795191803 3049.7723162869024 -999932.47890364029
 11083.546448491785 3163.2531582359984 -999933.57220746484
 10886.343931840865 3371.9453266990995 -999935.05664143595
 10575.073419658491 3698.6722265982762 -999937.24185367185
 10089.255553963416 4176.2985757555334 -999940.38094907079
 9351.3527942612545 4850.3784427841138 -999944.51147545141
 8264.3272996354099 5780.573011142983 -999949.14164168737
 6710.6848041442545 7038.2906899547661 -999952.71346880367
 4554.8524577869111 8695.9596065784608 -999951.81564193801
 1653.326512597524 10801.435046790402 -999940.29597390105
 -2109.4257144288795 13322.443335503867 -999909.02727534552
 -6709.2481939225909 16027.196332017927 -999849.04608966212
 -11688.264346273883 18249.191029090751 -999765.14817398763
 -15641.408835615881 18683.972290615751 -999703.08367488836
 0 0 0
 -0 -0 -0
 0 -0 -0
 0 0 -0
 39148.861579872239 17849.875746621496 -999073.9454979446
 34052.674235101949 15904.69936415866 -999293.47837138106
 28657.038640977615 13382.438487441317 -999499.71709673794
 24199.307624730474 11004.0543880974 -999646.5896993333
 20746.275282150094 9007.645112573251 -999744.19447748887
 18134.894731837227 7421.9731899110511 -999808.00152180891
 16183.998369496574 6197.4019719763037 -999849.82392636058
 14739.3467699018 5262.9602200574818 -999877.51895245572
 13678.408809973769 4550.5881551157963 -999896.0912414199
 12906.426860375113 4004.2353377002696 -999908.69095385796
 12351.418953704437 3581.6992938705025 -999917.30352064548
 11959.427398551325 3253.0943120563529 -999923.19178709725
 11690.168548126601 2998.2053218294641 -999927.17271017539
 11513.081331098427 2803.9594104252437 -999929.79092028656
 11403.785462966054 2662.5584298808567 -999931.42987893021
 11341.103232820053 2570.3937360937512 -999932.38394078624
 11304.653436418364 2527.5673606231358 -999932.90585614787
 11272.818755811624 2537.8088786165667 -999933.23931320244
 11220.717435769338 2608.7149557100934 -999933.64285161765
 11117.887361130639 2752.4101585326357 -999934.40625820274
 10925.529578321282 2986.7374841729584 -999935.85404396511
 10593.338691670269 3336.905268224612 -999938.32121716102
 10055.872012043938 3837.1861743114573 -999942.07604257797
 9228.2506516100875 4531.9328544877317 -999947.14909064746
 8000.9901434702406 5474.5950111191041 -999953.00537884678
 6234.2521454285152 6722.5781818651294 -999957.96963811235
 3753.9233574948585 8324.4051408181822 -999958.30530001456
 360.4736032674034 10291.731583684985 -999946.97375400411
 -4111.1710726663532 12540.6100905614 -999912.9118933148
 -9542.3531932914302 14774.645496537991 -999845.31470922334
 -14559.295401418756 16309.142733493227 -999760.99082766415
 -0 0 -0
 -0 -0 -0
 0 0 -0
 43143.417823482225 16004.004754986707 -998940.69760437275
 38123.326635465659 14982.565988448221 -999160.71514178719
 31898.407275366149 12813.268387947477 -999408.98123166454
 26505.556041714572 10646.047937391211 -999591.97533905529
 22342.787243402105 8774.1390509825251 -999711.86566035636
 19238.526889769812 7251.9621050683909 -999788.62172398146
 16948.266217178298 6054.7461390463623 -999838.03504438826
 15264.833217643885 5130.139813896204 -999870.32485834265
 14030.963728084978 4421.3219655495459 -999891.78612934821
 13130.959138698787 3877.3522618365337 -999906.26763288944
 12480.336119588415 3456.9646056480615 -999916.14178692864
 12017.440007781634 3128.9723959175026 -999922.89236090844
 11697.128639562679 2871.0461875769788 -999927.46450699028
 11485.987355174917 2667.9437205567519 -999930.47466850432
 11358.577668202423 2509.8167687921946 -999932.33947759809
 11294.436078687844 2390.9044307909307 -999933.35742421739
 11275.647760122123 2308.6923507459414 -999933.762659917
 11284.876198375125 2263.4878375337221 -999933.76190225547
 11303.642057128551 2258.3182244185491 -999933.56163049233
 11310.63168512727 2299.116190207013 -999933.38961934217
 11279.785436860106 2395.2050786187983 -999933.51250627148
 11177.982371220936 2560.1103378377129 -999934.24711086217
 10962.105043065359 2812.6330561721006 -999935.95862350904
 10575.205542076512 3177.9906876569512 -999939.03084284696
 9941.2908068976121 3688.6489649521563 -999943.78072264954
 8958.166819261769 4384.2414000759782 -999950.2636004372
 7487.9949793266842 5309.6276087957249 -999957.86800537026
 5346.8373878508082 6509.5780967109822 -999964.51773197984
 2300.6506966761913 8017.2275448844393 -999965.21492943226
 -1903.6879130201899 9830.4321201442999 -999949.86803172342
 -7371.8043303190507 11858.38562747204 -999902.51284374006
 -13458.017508880546 13738.747286644171 -999815.04719009134
 -17898.054040285399 14202.255378066695 -999738.94372668467
 -0 -0 0
 0 0 -0
 41868.538760004725 13542.637197924721 -999031.34207082167
 36154.292691830269 12202.864948648705 -999271.7134028154
 29873.770746038575 10313.442915285368 -999500.47059350915
 24747.171891149548 8563.4500427957046 -999657.06360069034
 20902.10951395028 7116.1698243719784 -999756.20125353441
 18092.332890655987 5966.6366942199165 -999818.51690050866
 16051.407134549139 5071.0717016989229 -999858.30824212136
 14568.602429646133 4379.9880354562647 -999884.27906836115
 13490.852468071114 3847.9120423440859 -999901.59039407445
 12709.826189754413 3436.6310343618584 -999913.32118607149
 12149.177447498216 3115.9203676630468 -999921.34117019991
 11754.815269165543 2863.0380760827907 -999926.81098716543
 11487.964502008217 2661.6360674499406 -999930.46876522643
 11320.226904432257 2500.5015872381459 -999932.79771924904
 11229.999974429502 2372.4021168447439 -999934.12723477441
 11199.788896830052 2273.1745245830184 -999934.69657085487
 11214.140339703565 2201.1100276482894 -999934.6969532998
 11257.971853440054 2156.6142302331823 -999934.3013842504
 11315.122056326265 2142.1100788419008 -999933.68748995604
 11366.905625975811 2162.1558498429908 -999933.05702860479
 11390.481695911074 2223.7809666622675 -999932.65359470469
 11356.791193641568 2337.034078170499 -999932.77852338739
 11227.797700516496 2515.7179813284379 -999933.8016698081
 10952.618573307689 2778.2234127221573 -999936.15877267718
 10462.00044374326 3148.323448807781 -999940.31552196981
 9660.4357567412771 3655.7119011229261 -999946.6544528692
 8415.4238229329294 4335.9818908583711 -999955.18894744606
 6544.6740557420389 5229.4646472615914 -999964.90935482678
 3807.1072812084863 6377.3030977381895 -999972.41758928006
 -80.064909577406851 7808.7612113074156 -999969.50795409514
 -5325.8808330032925 9495.8721453268045 -999940.72994630656
 -11648.014642933771 11197.725978531431 -999869.4588233945
 -17104.495503934078 12185.261527710421 -999779.45349714858
 0 0 0
 -0 -0 0
 40242.075681982999 11599.429737228229 -999122.62939770159
 34300.881935952741 10055.901075290163 -999360.95998992259
 28189.523486355691 8402.237028307838 -999567.28296725091
 23361.475763465496 7002.1862945628072 -999702.56118369999
 19801.50503968323 5892.5312171276928 -999786.56646007148
 17230.432372697291 5031.7756220715164 -999838.88373794442
 15380.475900777676 4368.9076928093955 -999872.1686328894
 14046.720699624138 3859.0161502049687 -999893.89318664162
 13083.299324624146 3465.4728577423871 -999908.40469347721
 12389.007339107669 3159.385878865005 -999918.26204846357
 11894.004777724098 2918.607203349522 -999925.0043789983
 11549.812480458739 2726.6846673582281 -999929.58103177976
 11322.252283098564 2571.8292031583605 -999932.59387710108
 11186.551506731077 2445.9608012501049 -999934.43702132092
 11123.902820526533 2343.8903516338701 -999935.38039418287
 11118.999421562234 2262.6837371414822 -999935.62198482
 11158.191270748941 2201.2182255144353 -999935.32261136221
 11228.038857144389 2159.9274473231785 -999934.63079185574
 11314.050322153127 2140.7135027118256 -999933.70260783134
 11399.432340765428 2147.0187426020207 -999932.71936307161
 11463.638063365677 2184.0490745634047 -999931.90514754155
 11480.493752148926 2259.1538940703149 -999931.54490039474
 11415.580855368258 2382.3523759516529 -999932.00214359153
 11222.468107252313 2566.9973290075659 -999933.73117136839
 10837.207358832875 2830.5565219095483 -999937.26947565947
 10170.427210631098 3195.5152285974877 -999943.17393178761
 9096.4786767981277 3690.4083512346633 -999951.81632010848
 7440.1811671423284 4350.9062976209034 -999962.85596945521
 4965.5230651911606 5220.2017796563041 -999974.04620023433
 1382.6133397864994 6345.1155099381212 -999978.91372244351
 -3574.0369897119394 7754.8351883828118 -999963.54373086896
 -9815.6275928583309 9384.5197513109615 -999907.78787045949
 -15658.788408235172 10840.953354649142 -999818.62158891
 -0 0 -0
 45555.526388242397 11300.851898099192 -998897.88505225466
 39899.423830345702 10097.229981856783 -999152.68198844348
 32922.162638289337 8365.3024668049693 -999422.90994446224
 26889.376730459604 6920.1447124241759 -999614.46218840114
 22307.842356477769 5813.8537484117705 -999734.24432395562
 18978.900514615849 4978.1729313897922 -999807.49103490985
 16593.606741323125 4346.4748619767033 -999852.86936208187
 14887.021755248708 3866.6829221837988 -999881.70567644539
 13662.324077033874 3499.7636547731154 -999900.54133157386
 12781.270103049394 3216.6019181860347 -999913.14253121649
 12149.002290651437 2995.4721817996165 -999921.71138032118
 11700.861199110552 2820.2652388637398 -999927.56535220181
 11392.54454078024 2679.2276517958535 -999931.51348883682
 11193.192087636879 2564.0124697227002 -999934.06697189016
 11080.61215532294 2468.9289697594304 -999935.56013575464
 11037.993122509715 2390.3521912218293 -999936.22242832533
 11051.586344650799 2326.2733382150141 -999936.22341208463
 11109.028961830116 2275.9873930442059 -999935.70261137874
 11198.038862963716 2239.9042512365859 -999934.79125119373
 11305.300544163076 2219.4786241539327 -999933.62984462292
 11415.342327724524 2217.2480640492017 -999932.38459936052
 11509.228328588702 2236.9837015552444 -999931.26442130969
 11562.814523818 2283.953892990336 -999930.54002510745
 11544.280248961401 2365.3162676500542 -999930.56502563611
 11410.505401810718 2490.6535306811838 -999931.79617985222
 11101.766238397498 2672.7007518416194 -999934.80160312401
 10534.099055881072 2928.3429444150888 -999940.22699593427
 9588.8424549550346 3280.0270769045301 -999948.6464427805
 8099.7052219356783 3757.742294711411 -999960.13627952384
 5840.7082969387839 4401.5405663055635 -999973.2559259939
 2527.2242557865725 5263.6460459084501 -999982.95343863952
 -2131.3544240262599 6405.7730853712073 -999977.21144008962
 -8209.7428505264343 7870.1102671787912 -999935.32865216385
 -14874.942169979216 9493.884343327949 -999844.28900480072
 -19618.025193527952 10212.654523996014 -999755.38746989495
 44948.821837707263 8713.8081096315964 -998951.28658189881
 38729.730435598423 7883.5385616049489 -999218.62362554739
 31697.570678211232 6689.6759022543902 -999475.11837435071
 25883.321011582571 5653.3956689586375 -999648.98479957529
 21528.861422967624 4860.42269393282 -999756.41254110832
 18383.930165012018 4270.0972286648193 -999821.88282780931
 16138.460225220939 3830.692456248968 -999862.42848547152
 14536.112586235256 3500.9537612737099 -999888.21612900402
 13388.782906558876 3250.708574672019 -999905.08218832652
 12565.181757787772 3058.220486900701 -999916.3782511251
 11975.730665593992 2907.7970691813721 -999924.06041220436
 11559.772065257201 2788.0978083200816 -999929.29659071926
 11276.068729030774 2690.9924840584981 -999932.80215895944
 11096.107400030221 2610.7698690707689 -999935.02802995034
 10999.494227948586 2543.5683729160037 -999936.26866248914
 10970.788602951241 2486.9524913859118 -999936.72643059515
 10997.312588219214 2439.6036101459858 -999936.55171218875
 11067.575665451761 2401.1027937148015 -999935.86968078301
 11170.081995681054 2371.7996771093035 -999934.79979171709
 11292.305644231716 2352.7564923271807 -999933.47197207331
 11419.67229956486 2345.7694760751906 -999932.04191591719
 11534.34116786939 2353.4650413710938 -999930.70768734871
 11613.576469415462 2379.4836032867938 -999929.72898067709
 11627.395493787066 2428.7622958284678 -999929.44990521262
 11535.114286233897 2507.951352574983 -999930.32323178241
 11280.262451222121 2626.0111908733879 -999932.92762277636
 10783.28672149792 2795.0781146213021 -999937.95220794331
 9931.5380785306643 3031.699478196294 -999946.08522143262
 8566.7830770012242 3358.5002177964293 -999957.66445585049
 6472.9045419530858 3806.0023455974347 -999971.80752906029
 3373.6749136388667 4413.0198055173187 -999984.57166787004
 -1029.5462592254864 5219.1799233234742 -999985.84999760299
 -6897.9024372883978 6225.4801066292539 -999956.83023788978
 -13776.393223686653 7254.2008176741028 -999878.78643375717
 -19457.419058738706 7751.6559938657247 -999780.63627624116
 44345.001702169269 6189.9685612992798 -998997.09965206846
 37871.418349685518 5793.8627861067098 -999265.82390583074
 30853.928157322985 5156.3191101132243 -999510.60399102187
 25195.507161801834 4548.0570349333339 -999672.19707065297
 21001.53336860329 4061.4571024734023 -999771.19390507159
 17985.42266168218 3695.3093032620213 -999831.42042087961
 15836.138665041237 3424.244523489881 -999868.73701582709
 14304.048530609991 3223.1058228486222 -999892.49711380911
 13207.827477301489 3072.2510576519799 -999908.05305626395
 12421.516946186777 2957.3442939905972 -999918.47669271624
 11859.466938719652 2868.1099719301915 -999925.56072395633
 11463.895879531583 2797.2179235792582 -999930.37490774901
 11195.683596810419 2739.4743353596464 -999933.57376836112
 11027.894142071722 2691.264239384453 -999935.56924813159
 10941.307958196288 2650.1609067228751 -999936.63020580076
 10921.370476405831 2614.6492077155362 -999936.94165004103
 10956.079805592572 2583.9256189370285 -999936.641814715
 11034.496117050901 2557.7615398429771 -999935.84681785887
 11145.610115553776 2536.4162278660051 -999934.66884985601
 11277.392946641068 2520.5996372883938 -999933.2312638656
 11415.834802920885 2511.4797661589664 -999931.68325897958
 11543.8041564879 2510.7422926217914 -999930.21594446106
 11639.489196570525 2520.7053711743956 -999929.08165313129
 11674.151233545286 2544.5090473934852 -999928.61728559621
 11608.792947677348 2586.398947584647 -999929.27073207649
 11389.263160438268 2652.146667224365 -999931.62306365627
 10939.196067925201 2749.6469293373725 -999936.38469212211
 10150.263524384263 2889.714756474873 -999944.30929877877
 8869.7195185763812 3086.9464588328055 -999955.89844613755
 6887.1393944708971 3360.0068909545494 -999970.63840127527
 3927.8455178332788 3729.217562740595 -999985.33237540908
 -323.74570119284039 4205.6137312494184 -999991.1039613625
 -6102.8778709182616 4759.047153937956 -999970.05272752
 -13136.136355477322 5257.869376220975 -999899.89335496619
 -19255.761510640932 5469.622612984308 -999799.62936436269
 44002.993930379955 4212.938316226202 -999022.51610056637
 37427.08552607704 4087.6059619767425 -999291.00103349425
 30405.330032772596 3841.0810402329944 -999530.27067820251
 24817.083314109386 3582.2353718903901 -999685.59055611119
 20707.342277181979 3365.561504043766 -999779.91526714421
 17763.054604452402 3201.1309599755346 -999837.10005765257
 15668.266400936811 3081.3503964115653 -999872.49722538295
 14175.715023351175 2995.2124127674738 -999895.03339409537
 13107.740566666645 2933.124306023537 -999909.78789040865
 12341.563152672206 2887.7953246781562 -999919.67000210122
 11793.942169998332 2853.9393359118894 -999926.37626895215
 11408.843829565267 2827.7847942842395 -999930.91857169278
 11148.41141142951 2806.6673386960088 -999933.91558715072
 10986.618158994841 2788.7354230955511 -999935.75652447226
 10904.906463625057 2772.7479662768424 -999936.69543813367
 10889.200389037429 2757.9315121661207 -999936.90757400368
 10927.85794502082 2743.8813885796044 -999936.52450326004
 11010.219694957794 2730.4911329855868 -999935.65767025307
 11125.528440335007 2717.9089663165819 -999934.41564323287
 11262.01102563456 2706.5145844721687 -999932.91869328043
 11405.965349020187 2696.9212128862428 -999931.31292625703
 11540.653699046366 2690.00066765356 -999929.78613931022
 11644.801420784766 2686.941371095435 -999928.58692305558
 11690.404017268294 2689.3433886120642 -999928.04835450591
 11639.485756757242 2699.3694267211372 -999928.61534012354
 11439.305388962781 2719.965386400238 -999930.86965075484
 11015.423953554631 2755.169543121584 -999935.53265993705
 10262.005850726942 2810.4805180931594 -999943.39461550373
 9029.1015280025476 2893.1246447901326 -999955.05156751256
 7108.0922507102787 3011.6667822032632 -999970.2019999139
 4221.2300300315137 3173.5366663336135 -999986.05484379677
 35.91403427281368 3377.5967828462854 -999994.29525880551
 -5727.5627570314809 3598.7496823855759 -999977.12175108655
 -12858.530864346978 3771.5609809246162 -999910.21272501152
 -19153.695017584101 3816.0390109138534 -999809.26871750911
 43956.677827757849 2575.6110697357076 -999030.11801545031
 37338.344843517014 2632.164587206104 -999299.21430667222
 30296.828442688926 2673.0896808895895 -999537.37137631443
 24717.027318490236 2700.3029976603525 -999690.8406723839
 20627.31176392491 2721.9361541238663 -999783.52910665958
 17703.0041449329 2742.7376280465514 -999839.5276415851