# OOMMF OVF 2.0
#
# Segment count: 1
#
# Begin: Segment
# Begin: Header
#
# Title: Oxs_TimeDriver::Magnetization
# Desc: Oxs vector field output
# Desc:  MIF source file: /mnt/gpfs/work/plgrid/groups/plggspinsym/MF/switching-obrazki/p-ap/Anisotropy.mif
# Desc:  Iteration: 39200, State id: 274550
# Desc:  Stage: 0, Stage iteration: 39200
# Desc:  Stage simulation time: 5.77141e-09 s
# Desc:  Total simulation time: 5.77141e-09 s
# meshunit: m
# meshtype: rectangular
# xbase: 1.0000000000000001e-09
# ybase: 1.0000000000000001e-09
# zbase: 3.4999999999999998e-10
# xnodes: 35
# ynodes: 35
# znodes: 5
# xstepsize: 2.0000000000000001e-09
# ystepsize: 2.0000000000000001e-09
# zstepsize: 6.9999999999999996e-10
# xmin: 0
# ymin: 0
# zmin: 0
# xmax: 7.0000000000000005e-08
# ymax: 7.0000000000000005e-08
# zmax: 3.4999999999999999e-09
# valuedim: 3
# valuelabels: Magnetization_x Magnetization_y Magnetization_z
# valueunits: A/m A/m A/m
#
# End: Header
#
# Begin: Data Text
 -0 0 -0
 0 0 -0
 -0 -0 0
 -0 0 0
 0 0 0
 -0 0 -0
 0 0 0
 0 -0 0
 -0 0 0
 0 0 0
 0 0 0
 -0 -0 0
 0 0 0
 23955.755844906162 33858.700099625086 -999139.48485157115
 21525.977704255973 33395.09694228528 -999210.3881486078
 19195.127389076246 32931.856483342788 -999273.25587802927
 17384.159451968535 32674.044267515488 -999314.86421015125
 15850.807278462265 32649.46231117511 -999341.16522807779
 14271.452782633076 32852.91213891119 -999358.30001029454
 12312.058063741815 33280.171833065629 -999370.22338520619
 9695.6779560436407 33891.01209253267 -999378.50343516807
 6791.818776208248 34456.196768176131 -999383.13058705558
 0 0 0
 -0 0 -0
 -0 0 -0
 -0 0 0
 0 -0 0
 -0 0 0
 -0 -0 0
 0 0 0
 0 -0 0
 0 -0 -0
 0 -0 0
 -0 -0 0
 0 0 -0
 -0 -0 -0
 -0 -0 -0
 -0 -0 -0
 -0 0 -0
 0 0 -0
 0 0 -0
 -0 -0 0
 0 0 0
 0 0 -0
 0 0 0
 28760.434752484227 31533.59347950737 -999088.819812892
 26652.039851483732 30252.533182472936 -999186.89593478874
 25011.724364636251 28498.630473973244 -999280.86227317282
 23368.461304736888 28044.348625996448 -999333.4926471709
 21122.327728080214 26982.249172127486 -999412.73030763469
 19109.552201563682 26272.414491110634 -999472.15331466973
 17503.22051753947 25936.844058598541 -999510.33881185763
 16112.947755832833 25904.673668916203 -999534.55207747803
 14681.732221390093 26147.758564287473 -999550.26960180583
 12949.362881327605 26692.471417945322 -999559.8161043541
 10721.521482124866 27612.479309834423 -999561.20371064439
 8204.0991800296979 28898.05235051936 -999548.69582576642
 6481.9856571863984 29571.340347214824 -999541.65480584628
 4475.8187710019174 31375.864227146223 -999497.63490982261
 1811.0766875586671 32666.474684797275 -999464.66742596717
 -0 0 -0
 0 -0 0
 -0 0 -0
 0 -0 -0
 -0 0 0
 -0 0 0
 -0 0 -0
 -0 0 0
 -0 0 -0
 -0 0 0
 0 -0 -0
 -0 0 -0
 -0 0 0
 -0 0 0
 -0 -0 0
 0 0 -0
 0 -0 -0
 -0 -0 0
 33583.432228927886 28924.03819865601 -999017.29369115923
 30987.924796292587 27325.304974983213 -999146.17360266333
 28209.502105105312 26199.569681300931 -999258.62845386355
 25602.8861849651 24218.657042870342 -999378.78147879441
 23631.526624965849 22303.266000710093 -999471.91820234503
 21946.903960771451 20868.752006827759 -999541.30909943592
 20248.458343577589 19705.915172616067 -999600.75872416061
 18736.184701393344 18982.734701975674 -999644.24230126466
 17464.148276850152 18648.924795516828 -999673.55728204362
 16322.066873151127 18627.829006802229 -999693.25001196342
 15145.726705104729 18890.280124814435 -999706.83916805359
 13772.219358878536 19465.06991571654 -999715.67809408042
 12098.831367100076 20428.612802863809 -999718.10529693856
 10203.976036067677 21825.043528538226 -999709.73104598373
 8323.9388918052828 23457.914159777814 -999690.17115534237
 6037.0706891679038 25502.600039463592 -999656.52659737132
 3012.2321208179865 27600.211782685907 -999614.50307966303
 -98.002409351382752 28825.900592951959 -999584.44258128223
 -3300.5617696351364 30366.416083262207 -999533.38466819748
 -0 0 -0
 -0 -0 -0
 0 0 -0
 -0 0 0
 -0 0 -0
 0 0 -0
 0 -0 -0
 -0 -0 -0
 -0 -0 0
 0 0 0
 0 0 0
 0 0 -0
 -0 0 0
 0 0 0
 -0 -0 -0
 35905.553612240292 25275.090644723423 -999035.51539106935
 32791.242464958421 24200.375990763867 -999169.19298961083
 29274.555671609967 21832.859606711841 -999332.94083184481
 26307.98716827574 19626.982227321972 -999461.19053207978
 23924.040651238472 17594.15818133338 -999558.94567394501
 22115.982591874785 15905.639520950168 -999628.87810698303
 20672.746230055403 14616.18851844979 -999679.45092239487
 19412.099136966539 13676.450486260841 -999718.02279902576
 18317.043862073609 13096.207409818599 -999746.45548540668
 17366.396776203281 12834.072868191015 -999766.82023191068
 16486.455162384791 12841.515429538258 -999781.62229441456
 15576.776416762474 13098.661643536259 -999792.87309902871
 14539.042699120339 13623.002215145489 -999801.49532196601
 13306.407171211547 14459.00377577859 -999806.91972900752
 11868.218545620057 15638.939166862143 -999807.26591192989
 10210.255188420308 17137.639061029415 -999801.0062089361
 8118.7988873185259 18995.702519993614 -999786.60142572399
 5385.2655165079241 21170.619258152645 -999761.37342645065
 2022.6735724869798 23481.145275242627 -999722.23372703989
 -2030.0323832317638 25902.558479902003 -999662.41123327159
 -5690.239548406299 27016.264926663549 -999618.79864441033
 -0 -0 -0
 0 -0 0
 -0 0 -0
 -0 -0 -0
 0 -0 -0
 0 -0 -0
 0 0 -0
 0 -0 -0
 -0 0 -0
 0 0 -0
 -0 0 0
 -0 0 0
 -0 0 -0
 37079.426505734162 23022.870485023042 -999047.07775191264
 34181.346804898581 21301.407212062775 -999188.61361676303
 30366.471123095802 18645.305056091616 -999364.91334791994
 26966.144997996318 16057.728182571534 -999507.36685107113
 24316.575082135914 13916.356581550071 -999607.44254720816
 22319.251545034076 12188.849601843536 -999676.5891806474
 20831.17436640197 10846.23765099989 -999724.17261129315
 19687.239070939944 9851.2836841785866 -999757.65304774605
 18755.252213970893 9159.1552709561347 -999782.15146556438
 17968.0677120849 8742.9259134151707 -999800.33496151958
 17276.846932391636 8569.7038661158022 -999814.01807322225
 16623.623593241184 8609.857385557214 -999824.74739047652
 15942.392524066443 8850.6009048288015 -999833.73967086745
 15168.841834794081 9300.3817606657194 -999841.69203754305
 14249.579549448417 9983.2075120166774 -999848.63106894132
 13140.903118376249 10924.086694995611 -999853.97983661294
 11776.260383700333 12141.166947062617 -999856.94564599521
 10015.928972329108 13674.667622858438 -999856.33199586521
 7693.4645728617515 15563.015580969664 -999849.29021772707
 4661.8547875335562 17832.719851610949 -999830.11617606017
 794.59581907673567 20516.698099526075 -999789.19463883864
 -3562.9782435027814 23245.87865977472 -999723.42890990165
 -7023.7911712432224 24978.907088450793 -999663.30359689065
 0 -0 -0
 -0 0 -0
 0 0 0
 0 0 -0
 0 -0 0
 -0 0 0
 -0 0 0
 0 -0 0
 -0 -0 -0
 -0 -0 -0
 0 0 0
 37937.21769185771 21635.215528513581 -999045.88731591054
 35081.036523233124 19543.774585483443 -999193.35553805972
 31242.076739616419 16507.819970630706 -999375.51727106737
 27650.619723953154 13658.866153637926 -999524.32616934238
 24757.134654039743 11324.202860592446 -999629.3546676659
 22581.922800335389 9516.7615937091905 -999699.69891533349
 20987.552489251248 8142.6449912995467 -999746.57787514175
 19822.839865115915 7120.6146170118673 -999778.15132516169
 18952.642249301098 6389.0845037809113 -999799.96846918017
 18272.31662786191 5900.9486954785425 -999815.63362929272
 17711.681044584235 5623.0780801360106 -999827.32376519882
 17218.524355246042 5528.4727673092211 -999836.46583223238
 16744.837053234056 5597.0995019015518 -999844.12930677691
 16242.887195367113 5819.9555151714876 -999851.1372866265
 15666.230625101231 6200.6598584515914 -999858.05044282193
 14970.228207087921 6753.2755288706958 -999865.13367406651
 14106.630381328145 7498.1755831935698 -999872.3820279307
 13007.772449131964 8462.3080890231686 -999879.58634913526
 11569.432313238322 9688.9507360831249 -999886.12975157483
 9657.2419770532269 11238.525514731022 -999890.21058396786
 7117.8575886312119 13191.857432890518 -999887.64918905683
 3804.6986728224051 15644.086908082898 -999870.38500638737
 -267.86893244752423 18582.332448284269 -999827.29767046089
 -4656.077350112444 21667.123543609188 -999754.39819040324
 -8080.2586531711177 23735.00764073684 -999685.63000194822
 0 -0 0
 0 0 0
 0 -0 -0
 0 -0 0
 0 -0 -0
 -0 -0 0
 0 -0 -0
 0 -0 0
 0 0 -0
 39048.173554188761 20514.138983240551 -999026.73149613885
 36001.989813579799 18337.214528229546 -999183.46828438318
 32018.310623475008 15140.869795571603 -999372.59410424728
 28288.182809934504 12103.450527234636 -999526.53051264549
 25228.570004769721 9611.7811299623281 -999635.50002939778
 22889.050255182403 7690.4217630092371 -999708.4318897801
 21172.388480185189 6253.4475443768451 -999756.28248081252
 19938.555611719508 5196.8133023571017 -999787.70103038312
 19055.509769601504 4436.579181764143 -999808.58383621834
 18413.467044376528 3911.612176090061 -999822.80606194912
 17927.837147680682 3578.2528803006971 -999832.88041628769
 17536.764698738269 3405.8117428831706 -999840.41843199835
 17193.079125476495 3372.108950132601 -999846.50167483871
 16856.750517501245 3462.2341631488689 -999851.92048452375
 16490.7925762632 3669.1813215318166 -999857.28525056853
 16059.344507497186 3994.2302766004236 -999863.06241329201
 15525.456061857472 4446.4184058817527 -999869.586284847
 14846.182904460653 5042.0791608633981 -999877.07659036911
 13964.130627773235 5806.7466647532783 -999885.63583490998
 12798.974743493636 6780.43489064809 -999895.10047214921
 11245.007905825447 8022.351749118181 -999904.59128339402
 9172.5589835852388 9615.7893999439584 -999911.69647919817
 6440.5364958473001 11665.053840754879 -999911.2190632415
 2947.3181976660512 14255.157613260473 -999894.0462853366
 -1268.2530059270389 17355.282553719462 -999848.58138709865
 -5800.4208989748058 20566.87086706324 -999771.65339898097
 -9412.2729525230479 22682.247314963566 -999698.4169111253
 0 -0 0
 0 -0 0
 0 0 -0
 0 0 -0
 0 0 -0
 0 -0 0
 -0 0 -0
 41026.691807730938 19127.775656997106 -998974.94400897215
 37465.445286438509 17188.135769706249 -999150.0930281952
 33078.199749870713 14086.157144038765 -999353.49745634093
 29053.758053409834 11032.951500145164 -999516.95989821455
 25773.395391625341 8470.5491917535546 -999631.92320292431
 23256.25361513898 6469.2134281012868 -999708.60551733267
 21399.602621401238 4964.6447743940462 -999758.67553620669
 20068.807592553541 3860.2070836052276 -999791.14907218737
 19133.115465727562 3065.4257892116984 -999812.2459028525
 18480.692372480247 2509.1854908162136 -999826.06887278485
 18021.861726878444 2139.5924678366014 -999835.30375955859
 17687.529262738521 1919.8130273721592 -999841.72028702602
 17425.46958092109 1824.0348697654547 -999846.50117239414
 17195.204912766309 1834.301292417312 -999850.46895362146
 16963.261492818368 1938.9503554991848 -999854.23349158489
 16699.771725390314 2132.2099642605372 -999858.27560959267
 16376.000538584742 2414.170775760896 -999862.98980701622
 15961.697040008605 2790.865887685105 -999868.70902894042
 15421.26301774988 3274.8813437029171 -999875.72217707254
 14708.485535939744 3887.3121559003325 -999884.26793176483
 13760.987663154767 4661.3357032139675 -999894.44801338739
 12496.015789887892 5646.4050251627577 -999905.97942990146
 10807.803557644855 6912.2629863043621 -999917.70261490403
 8569.3470434471947 8548.6899681997456 -999926.7404120547
 5645.7370517966665 10651.265630223248 -999927.33545674023
 1927.2068349838662 13281.238862592092 -999909.94322893384
 -2581.5953712510059 16361.797742731051 -999862.80405861931
 -7514.288570475218 19439.209408275459 -999782.80271510023
 -11642.08652893713 21272.163290724682 -999705.93520804169
 0 0 0
 0 0 0
 -0 0 0
 0 -0 0
 -0 0 -0
 44335.754038665458 16733.104197705368 -998876.54098879092
 40052.540496111549 15636.003497634194 -999075.22709475155
 34894.597636478589 12994.316138049273 -999306.51694257092
 30276.840038190257 10140.268131937746 -999490.11396787409
 26580.627098662295 7636.3291526582225 -999617.50521892833
 23776.147271156762 5625.044841457785 -999701.48228932417
 21718.339973456375 4084.3783272690684 -999755.78596099024
 20248.299931797141 2939.3151138525905 -999790.66147695808
 19223.265648703004 2108.0804611268245 -999812.99354157643
 18523.904342871065 1519.5549604449297 -999827.26304128091
 18054.530318794659 1118.2151835541408 -999836.37837886787
 17740.419775470662 863.13936568136342 -999842.25380638172
 17524.149653642507 725.02859833321304 -999846.17742553202
 17361.704637350671 683.2414754030159 -999849.04080224596
 17218.628108845074 723.50588942583954 -999851.48666453315
 17066.640889154423 836.55479468414205 -999854.00431504811
 16880.946416184765 1017.5258160079394 -999856.98891856917
 16637.954354397418 1265.8341197648344 -999860.77837811096
 16312.90726918731 1585.4170035370303 -999865.67873357458
 15876.905747608558 1985.5152898610686 -999871.98260223051
 15293.159243382028 2482.2829435316321 -999879.97157246061
 14512.692901896646 3101.3029883417871 -999889.87576858164
 13469.857438390771 3880.6544125533128 -999901.74690412451
 12077.702693371783 4873.8299307520274 -999915.18384283793
 10223.905599467245 6150.4959267569038 -999928.81904370978
 7769.0591398202178 7791.0702711312542 -999939.46864003327
 4551.3398983809066 9868.5715585997641 -999940.94655660645
 413.8655541384241 12401.248144243464 -999923.01591660944
 -4695.2827384403736 15238.336046646 -999872.86563569459
 -10423.306625767244 17800.745493835755 -999787.22143206489
 -15340.38712551613 18715.608616701669 -999707.15637978003
 0 0 0
 -0 -0 -0
 0 -0 -0
 0 0 -0
 42807.853144579902 13750.594273208006 -998988.69306228193
 37729.423135454745 11779.168922660898 -999218.56558480579
 32321.409075558626 9277.5575460944747 -999434.46680677834
 27929.767595793106 6940.9003059101178 -999585.79020761803
 24630.225600239643 4993.1529589048469 -999684.16032785585
 22237.31335624721 3461.1920851728728 -999746.72894891002
 20543.613622949346 2299.0570355238578 -999786.31430724147
 19372.366878014524 1440.9376947263597 -999811.299746159
 18583.246194459571 823.13332338805174 -999826.97773785249
 18067.408915936987 392.07439503180933 -999836.6941719699
 17741.251690709545 106.03162735049114 -999842.60598643287
 17540.845175086462 -66.037380673658248 -999846.14535917866
 17417.293636957074 -146.60973535018479 -999848.29668702709
 17332.902789450691 -151.68023720360208 -999849.76245133812
 17257.978162734846 -92.398020351194404 -999851.0657354627
 17168.198841996033 23.87341559206525 -999852.61532817024
 17042.4574257922 193.01572934322945 -999854.74814585864
 16860.951341562468 414.03040285998514 -999857.75833299547
 16603.194747082569 689.28638148829975 -999861.91987117648
 16245.656389860345 1025.2050212590409 -999867.50502410403
 15758.805246876402 1433.4821037277006 -999874.79475494777
 15103.47085997069 1932.8631823446669 -999884.06788382225
 14226.37329580826 2551.2981703494756 -999895.54513483774
 13054.555252373049 3328.044469628519 -999909.24723555357
 11488.468541401751 4314.7131211290298 -999924.69633530662
 9393.8360340870076 5573.3539107266042 -999940.34500601608
 6594.0585713416376 7168.1156504396531 -999952.5671298512
 2872.4541328332944 9142.7241502170964 -999954.0787468031
 -1979.8657576248868 11466.475989061842 -999932.29773818888
 -7929.3499525699972 13910.029400443704 -999871.81002937001
 -13668.89011522397 15787.361967549852 -999781.93654672685
 -0 0 -0
 -0 -0 -0
 0 0 -0
 46545.785750573188 11649.974811002148 -998848.22066005843
 41675.78774622253 10714.406508858268 -999073.73612206161
 35498.32193485953 8538.5075386006938 -999333.25924279261
 30132.484192249329 6359.0413532061029 -999525.68550761743
 26059.396359127473 4495.832382886184 -999650.28652653471
 23123.465848901109 3000.1280350602447 -999728.11531881406
 21064.798950065349 1843.4938363709894 -999776.41289223696
 19653.437532016153 973.35161394331192 -999806.37874531024
 18710.478682040539 334.6228930520661 -999824.88767534087
 18101.784895741395 -121.56559237634197 -999836.14187795529
 17727.494639809534 -435.0919903711029 -999842.76095231855
 17512.997001213673 -636.82166653451554 -999846.43290567386
 17402.105021710209 -749.82222802496665 -999848.29074587103
 17352.049011551269 -790.9482694596395 -999849.12901694118
 17329.767823791553 -772.32901817221307 -999849.53000692138
 17309.110682997405 -702.5401604998483 -999849.93930323713
 17268.662133992471 -587.39615188219534 -999850.71299362625
 17189.983607425493 -430.37586998489212 -999852.14869008854
 17056.030964216545 -232.72511211202578 -999854.5082394589
 16849.516164007731 6.750785358930532 -999858.03680295835
 16550.957331050984 292.22425884825344 -999862.98082107643
 16136.201944200999 631.74991070457804 -999869.60343780136
 15573.171777322668 1038.5322716786668 -999878.19146709796
 14817.515901208357 1532.4719717330472 -999889.04022005026
 13806.679731533721 2141.7679051564737 -999902.38944860571
 12451.785975828181 2904.1126824291318 -999918.25623674854
 10626.778173114157 3866.6359690264817 -999936.05831170129
 8155.3583481487112 5083.0673599258043 -999953.82521215838
 4801.0486353220995 6604.9969295532237 -999966.66141805029
 283.36052271239384 8460.3649698410427 -999964.17032381264
 -5592.2927133435405 10598.841825038224 -999928.19282895327
 -12388.909061194207 12701.988731631658 -999842.57481592335
 -17933.041189279695 13463.550960044658 -999748.53779800527
 -0 -0 0
 0 0 -0
 45254.369133685526 9220.7613311875502 -998932.94050941442
 39653.907021312349 7842.7066937988602 -999182.69581176189
 33392.641837509553 5910.8003206870071 -999424.83154596493
 28311.970958873262 4123.8331783843096 -999590.62935800932
 24582.99432205833 2659.8685358986422 -999694.25400445983
 21963.585057861488 1515.1015386131196 -999757.62332614092
 20172.925078607754 643.07484378743095 -999796.29902721604
 18980.017756724828 -7.2920393331840003 -999819.86321175913
 18211.537873789093 -481.58351487105477 -999834.04021146917
 17740.918855284126 -817.43205768064763 -999842.28336423181
 17475.934384548869 -1044.5291167079286 -999846.7385936263
 17348.764203599327 -1185.5575574877548 -999848.79598561593
 17308.813787163846 -1257.4410210289632 -999849.40056358511
 17317.673236794511 -1272.607681349705 -999849.22796557355
 17345.589277176838 -1240.0904756218936 -999848.78492111969
 17368.941156262488 -1166.3846891066735 -999848.46823399549
 17368.379988429399 -1056.0331506965047 -999848.60062439565
 17327.350048608627 -911.95075438549895 -999849.45431105501
 17230.77654365663 -735.50169455124433 -999851.26862796943
 17063.687194955397 -526.33941682003012 -999854.26615388866
 16809.560966675373 -281.99806420668205 -999858.66958145611
 16448.153051101224 2.776037053501589 -999864.71997640806
 15952.520153566127 336.9553669313533 -999872.69367746543
 15284.838307638436 734.39127946716087 -999882.91033868457
 14390.466142597801 1215.1228218424485 -999895.71354253066
 13189.51207999273 1806.6715696635456 -999911.3824279285
 11565.177588817884 2545.0350267117651 -999929.88227377832
 9348.9190530354081 3474.7966097435537 -999950.26051352185
 6306.1713686759422 4646.7999129647869 -999969.31925596495
 2139.7791308799765 6108.0755954698907 -999979.05615957326
 -3425.7339116238986 7862.9747225642413 -999963.21831139317
 -10268.160422206693 9729.1551564615802 -999899.94920566189
 -16577.048843036391 10998.367644766291 -999802.09909801965
 0 0 0
 -0 -0 0
 43440.188298907095 7304.6087108550309 -999029.32526134432
 37644.807971409275 5637.7836548316454 -999275.27930408495
 31589.710447041627 3887.8854063261592 -999493.35892788146
 26842.077218988674 2425.7213530138824 -999636.74340556702
 23428.841810459027 1281.0697462034877 -999724.68621702364
 21073.563444862062 407.96309839408195 -999777.84456840507
 19495.490537788071 -247.63992135609169 -999809.91419527377
 18471.424584948658 -732.38960097793245 -999829.12043972523
 17836.549679319345 -1083.5708721529297 -999840.32893742702
 17471.907219504094 -1330.1133830659119 -999846.46984249586
 17291.663409802411 -1494.0531415441444 -999849.37174643087
 17233.176868499639 -1591.916385407282 -999850.230493168
 17249.904045600193 -1635.9432733408228 -999849.87098065065
 17306.517251550664 -1635.1256745517596 -999848.89399581286
 17375.565386883922 -1596.0507311316155 -999847.75958620303
 17435.176833335376 -1523.5380696020572 -999846.83499051048
 17467.413110266476 -1421.077615038673 -999846.42321590916
 17457.007026243809 -1291.0723511646188 -999846.78128094703
 17390.242010639173 -1134.8988811358813 -999848.13421206176
 17253.779712686781 -952.78532484811205 -999850.68849591294
 17033.211101480494 -743.50533237903005 -999854.64789607946
 16711.106661044621 -503.8769177210952 -999860.23274366441
 16264.25116019405 -228.06139672068335 -999867.70230975922
 15659.665958236685 93.34218830664679 -999877.37555627921
 14848.840672122486 474.40393227579267 -999889.6373458436
 13759.453242801243 935.17193498668894 -999904.89692765858
 12283.807793278496 1503.1798237407263 -999923.42132611084
 10263.856779049178 2215.0807977122413 -999944.87181098096
 7475.4981868719451 3117.8634978636433 -999967.19738902769
 3624.9425610728413 4266.9659725889233 -999984.32627357601
 -1595.3295200296452 5710.3925720789621 -999982.42301572266
 -8212.0734253660867 7420.5831408599679 -999938.74652195873
 -14700.693988314277 9038.6343902244789 -999851.08525451017
 -0 0 -0
 48280.585281669257 6456.9827390602859 -998812.941675651
 42903.344245327688 5462.4018958426514 -999064.29483697144
 36098.216621102627 3750.2817595939277 -999341.21006966371
 30163.519614497935 2258.5991746358982 -999542.42572000634
 25697.514159321443 1101.701984000023 -999669.15728093276
 22543.855928739311 227.65162905983794 -999745.82906586805
 20398.567093722115 -426.58297008384886 -999791.83657774108
 18985.370825217629 -912.65867015309072 -999819.34505628608
 18090.436318424327 -1269.8345833781343 -999835.54829478811
 17557.401019369852 -1527.3626738559785 -999844.69035581104
 17274.001927156845 -1706.9184532594952 -999849.336293631
 17159.54443591263 -1824.5043578881825 -999851.09952362394
 17155.273441503472 -1891.883106106055 -999851.04759232025
 17217.548452859057 -1917.6659479173102 -999849.92803049472
 17313.171286830344 -1908.1561824603184 -999848.29501278652
 17416.245834918565 -1867.9943665844532 -999846.58072029427
 17506.050526566141 -1800.6382754342339 -999845.13595694525
 17565.564745824555 -1708.6877997692891 -999844.25353210024
 17580.353524181432 -1594.0695247251756 -999844.18291667581
 17537.601253549117 -1458.0821895915144 -999845.1412786881
 17425.078346735692 -1301.3081228395649 -999847.32496605662
 17229.851851114272 -1123.3834997148463 -999850.92399552313
 16936.491199547931 -922.62312858012979 -999856.14166859537
 16524.485516759931 -695.48547125072525 -999863.21948472806
 15964.457717552175 -435.8619198397484 -999872.46492448775
 15212.643101505815 -134.15419933810648 -999884.27204977942
 14202.921603426126 223.92212757532155 -999899.10834884108
 12835.674595526079 658.92082037585294 -999917.40222931933
 10963.173014383885 1199.7841669730196 -999939.18282834045
 8373.3149815068718 1886.5664080945257 -999963.16355324211
 4780.5830976093976 2773.2009031007424 -999984.72757437546
 -144.37559472917061 3926.919648487939 -999992.27919907554
 -6602.2812766875759 5405.902516884692 -999963.59238720383
 -14037.775736689022 7096.5723857891508 -999876.28210331092
 -20083.633327091808 7962.5520842375572 -999766.59547950944
 47779.580114084201 3757.3767897060375 -998850.83663366968
 41766.996149693579 3021.6010860933543 -999122.80924794613
 34817.191248940173 1888.6924300005576 -999391.91313240037
 29074.755660231025 849.87014224817608 -999576.8786361753
 24841.256451911748 25.890392425921732 -999691.40803928999
 21887.295216413026 -599.66108293003344 -999760.26462082157
 19900.221357919476 -1067.67193741458 -999801.400912471
 18610.121057370219 -1415.0769581711008 -999825.81530556246
 17811.396921656014 -1670.3270389846596 -999839.96926872351
 17354.620987061131 -1854.3549902532598 -999847.67764793325
 17132.787165705875 -1982.3479467921695 -999851.25788816833
 17069.04804887504 -2065.2777842986784 -999852.18018784095
 17107.431520847167 -2111.0552480220572 -999851.42857951636
 17206.282395906645 -2125.3876700160667 -999849.70199193654
 17333.806232758554 -2112.4168093889375 -999847.52680431667
 17465.08636982453 -2075.1996352307706 -999845.32018936239
 17580.10292749713 -2016.0578730468214 -999843.42548806663
 17662.373666774703 -1936.8190681632177 -999842.13218305225
 17697.958282389005 -1838.9520624276533 -999841.6877325864
 17674.590503353189 -1723.6050799008081 -999842.30658442713
 17580.757911699813 -1591.5415163832231 -999844.17983346374
 17404.515357863766 -1442.9740708013237 -999847.48870564706
 17131.818348557314 -1277.2869594857036 -999852.42377967713
 16744.072408725806 -1092.6380898242494 -999859.21117984224
 16214.525525835375 -885.4178829903102 -999868.14390555758
 15502.969895583232 -649.53019435908118 -999879.61077068828
 14548.099245534626 -375.42920227947604 -999894.10032325715
 13256.785833154783 -48.820818122564717 -999912.12376183411
 11489.905903380841 351.0578947571974 -999933.92722753738
 9045.9752786558493 853.45940662491489 -999958.72011713532
 5649.4783219653355 1497.3640662750631 -999982.92050191667
 968.12830188747671 2326.9977527030196 -999996.82389948133
 -5264.4565764384615 3361.7747881189384 -999980.49179332948
 -12797.363266340899 4474.9023742047639 -999908.09714801842
 -19516.140453354088 5148.8213643995523 -999796.28420011757
 47193.343952689007 1308.1093214279797 -998884.91686308209
 40928.683216048434 902.64547525674652 -999161.66265592177
 33946.934959709637 273.51780604582387 -999423.59927852964
 28328.942059620946 -346.62428814675053 -999598.59488365927
 24248.709256023198 -863.34519431947717 -999705.58402686368
 21430.176179108148 -1266.2352620011704 -999769.54554396879
 19552.171833204156 -1572.2128085766001 -999807.60185322119
 18347.93528862371 -1801.7330850334868 -999830.03907090856
 17617.189987570215 -1971.9230138449495 -999842.86072190816
 17215.225697851249 -2095.6558630102909 -999849.61080688331
 17038.619096535884 -2182.2280113173611 -999852.45078470954
 17013.095611722369 -2238.2414354949865 -999852.76158691628
 17084.474138928093 -2268.351532394975 -999851.47663276561
 17212.325043526642 -2275.8373017544345 -999849.26685534546
 17365.66760719633 -2263.0348760173279 -999846.64437187859
 17520.119549806892 -2231.6613856484501 -999844.02038439014
 17656.008547000511 -2183.0576136321624 -999841.73728727875
 17757.107049586786 -2118.3540694998755 -999840.08607640129
 17809.705698570546 -2038.5708297897911 -999839.31639634073
 17801.826205844103 -1944.6461797066133 -999839.64381043275
 17722.365699370159 -1837.3974179343186 -999841.25826290355
 17559.993577264682 -1717.4061123643312 -999844.33645533607
 17301.561838524252 -1584.8271145992528 -999849.06074915349
 16929.761752741651 -1439.1097813667002 -999855.64564592636
 16419.637727746471 -1278.6208451787868 -999864.37111521454
 15733.468468030351 -1100.141876087835 -999875.61609323067
 14813.352147975513 -898.20818515916062 -999889.87284610304
 13570.769237013017 -664.25412601820642 -999907.69223402394
 11872.593169638998 -385.61243102816337 -999929.44392816094
 9524.3005713920393 -44.749122471782989 -999954.64181938861
 6255.5564237107119 379.76453879091821 -999980.36170353112
 1727.4632768161275 905.88063974631314 -999998.09762363741
 -4374.2880801558094 1522.6040569502657 -999989.273582811
 -11939.762077838064 2130.4964348498038 -999926.4488283454
 -18939.94870863227 2494.1383657224637 -999817.51215745707
 46761.897071866624 -557.49968484546594 -998905.90857014235
 40420.422944762875 -758.62399027282402 -999182.47277392109
 33437.887851079846 -1055.5535661885356 -999440.24006577162
 27885.78249492028 -1355.49411079776 -999610.196911957
 23889.994927928154 -1613.909680257045 -999713.29061780893
 21149.433469687021 -1821.6017828636373 -999774.66622777341
 19336.312988762289 -1983.8238315499812 -999811.06787382893
 18184.697142673209 -2108.9348133380277 -999832.42055045511
 17496.9959667937 -2204.3459187752492 -999844.48590328696
 17131.05822519273 -2275.6596595657043 -999850.66295782325
 16985.417429584508 -2326.831774425691 -999853.02992421645
 16987.159521341466 -2360.5502620630768 -999852.92129085516
 17083.00294212643 -2378.5871051351019 -999851.24560299609
 17233.075397039644 -2382.0877707354721 -999848.6619335009
 17406.720460977001 -2371.797560606034 -999845.6784219878
 17579.71738981162 -2348.2445622996929 -999842.70727148373
 17732.463642922114 -2311.8790816991477 -999840.09468927782
 17848.754353653108 -2263.1788384480169 -999838.13689495157
 17914.910997936535 -2202.712574167324 -999837.08874058665
 17919.030220452514 -2131.1657645229261 -999837.16998741473
 17850.179686583509 -2049.320105491352 -999838.57265673729
 17697.332669721043 -1957.9892560440812 -999841.47278178565
 17447.836502301834 -1857.9039665584576 -999846.04874662589
 17085.12231427115 -1749.5482062406368 -999852.50796133943
 16585.302514635587 -1632.9383307134481 -999861.12098276231
 15912.146626374039 -1507.3412898536139 -999872.25759692746
 15009.800314361843 -1370.9194378475534 -999886.40678549977
 13792.468140948296 -1220.3070649212157 -999904.1347415502
 12130.419327382953 -1050.1844582297554 -999925.87227231252
 9832.6211095571834 -853.15001771213008 -999951.29466247663
 6630.0621032691197 -620.82926173414796 -999977.82817797258
 2176.6808943991455 -348.57195602251329 -999997.57027598599
 -3869.8331393371805 -47.799270599452768 -999992.51102530933
 -11453.16725816186 233.34950355557669 -999934.38310109428
 -18551.858215125201 404.6692365882239 -999827.81757639383
 46538.008700570121 -2119.6964229120795 -998914.27091280487
 40193.055112596143 -2175.8360043808111 -999189.56362564047
 33227.004988960085 -2221.2013434737546 -999445.36239058862
 27704.806810323382 -2255.3380704789024 -999613.60391392757